7
energy=-0.005268
Ar 14.96216877 0.01049503 0.09175603
Ar 5.51462133 5.50824473 12.92433870
Ar 0.76596879 5.49655561 11.06497890
Ar 9.81348052 10.96118993 1.26651167
Ar 9.72379995 14.06215955 10.20156637
Ar 3.84172338 7.46554142 12.55248182
Ar 5.49282449 11.81431526 13.05974894
56
energy=-2.461175
Ar 14.83181002 14.84263540 0.19458045
Ar 5.42145865 5.56123220 12.79794453
Ar 0.89194759 5.91363374 10.67712285
Ar 9.73314086 11.05223261 1.59485263
Ar 10.06666481 13.70291991 10.23527820
Ar 3.59683190 7.49624569 12.67911507
Ar 5.68454785 11.93772501 13.20367003
Ar 8.00236071 4.43018885 4.40153467
Ar 5.04199371 9.56831850 13.89556748
Ar 1.53144415 9.86030912 8.19024859
Ar 3.84276723 7.85740766 1.84200161
Ar 14.01472202 10.71212642 1.41978436
Ar 9.08297666 5.60057059 9.66218217
Ar 5.13215049 0.83053180 13.37856772
Ar 3.85052804 10.07063600 11.83484010
Ar 9.12755957 14.72487308 8.67803356
Ar 12.71919428 3.83674430 11.00867959
Ar 4.73282006 1.66200669 9.50489414
Ar 3.53921264 4.15649643 10.71453849
Ar 13.74200763 2.45294346 10.93007084
Ar 13.65617392 8.82649265 5.12083972
Ar 12.49382028 11.10052113 7.67500727
Ar 9.58842574 2.55671410 11.23755000
Ar 5.12373302 2.08805832 14.68917711
Ar 13.13906864 3.58574264 3.08949499
Ar 6.53203976 12.28633908 3.31077083
Ar 12.82977462 1.51580113 7.61528039
Ar 3.28162217 6.64414244 10.95479221
Ar 0.79914329 12.61331645 6.30483421
Ar 10.31866367 6.03186760 3.67131671
Ar 2.16995696 7.14653033 12.72149568
Ar 13.49554465 10.74273013 13.71667380
Ar 6.45840572 10.60904788 12.91418754
Ar 10.58766972 4.39495454 13.00797522
Ar 2.91541744 7.53530398 0.38175893
Ar 13.54505903 9.19447316 9.73038248
Ar 10.78477125 12.30308284 14.48768123
Ar 13.15522681 11.97400736 10.66799159
Ar 14.20728986 13.50516618 11.31519766
Ar 1.18590064 3.37828144 9.15055386
Ar 3.29094436 4.47381880 7.66510620
Ar 9.17137553 3.40520309 9.94397206
Ar 1.91564759 14.38145323 13.24968125
Ar 8.80592781 12.76747548 8.55577746
Ar 7.44075652 9.44530167 2.97807204
Ar 8.31648053 5.26441514 12.14989155
Ar 13.07809800 0.11943007 5.36830456
Ar 6.86030954 0.08764504 7.21032322
Ar 7.71642798 3.89396215 14.93074190
Ar 14.20958789 11.50229489 11.42362140
Ar 11.51873873 8.80801119 8.38290403
Ar 11.92257148 0.84004345 8.83389476
Ar 8.24602465 6.43865530 14.70640674
Ar 14.13680247 6.38587769 14.03100124
Ar 4.13891664 14.21786010 1.79285040
Ar 9.27708563 2.43541832 2.33651419
95
energy=-8.500406
Ar 14.83181002 14.84263540 0.19458045
Ar 5.42145865 5.56123220 12.79794453
Ar 0.87142482 5.75462812 10.80236674
Ar 9.73314086 11.05223261 1.59485263
Ar 10.06990070 13.50028773 10.30941047
Ar 3.27916558 7.42157760 12.76290876
Ar 5.68454785 11.93772501 13.20367003
Ar 8.19194829 4.67184502 4.41892774
Ar 5.21831748 9.48002476 13.86108800
Ar 1.44112658 9.64966787 8.37071253
Ar 3.84276723 7.85740766 1.84200161
Ar 14.01472202 10.71212642 1.41978436
Ar 8.98009783 5.53470235 9.67071434
Ar 5.15434219 0.92238591 13.66649644
Ar 4.01790771 9.97966406 11.98398598
Ar 9.12755957 14.72487308 8.67803356
Ar 12.71919428 3.83674430 11.00867959
Ar 4.73282006 1.66200669 9.50489414
Ar 3.53921264 4.15649643 10.71453849
Ar 13.66946974 2.54105032 11.06397478
Ar 13.68240572 8.63628510 5.23814959
Ar 12.44018504 10.86997220 7.65485772
Ar 9.58842574 2.55671410 11.23755000
Ar 5.28778758 2.05071666 14.78355178
Ar 13.13906864 3.58574264 3.08949499
Ar 6.53203976 12.28633908 3.31077083
Ar 12.79519620 1.52305824 7.48753921
Ar 3.22431432 6.50264013 10.97763470
Ar 0.79914329 12.61331645 6.30483421
Ar 10.31866367 6.03186760 3.67131671
Ar 2.16995696 7.14653033 12.72149568
Ar 13.49554465 10.74273013 13.71667380
Ar 6.71983239 10.74347438 12.84478152
Ar 10.58725733 4.25530338 13.03697308
Ar 2.91541744 7.53530398 0.38175893
Ar 13.55246574 9.22800687 9.69506818
Ar 10.76552585 12.46085085 14.46191096
Ar 13.15522681 11.97400736 10.66799159
Ar 14.20728986 13.50516618 11.31519766
Ar 1.05072910 3.19091344 9.18509644
Ar 3.29094436 4.47381880 7.66510620
Ar 9.17137553 3.40520309 9.94397206
Ar 1.55556848 14.31065374 13.16845187
Ar 8.80592781 12.76747548 8.55577746
Ar 7.47507527 9.49371826 3.01053472
Ar 8.33316778 5.20407320 12.12924723
Ar 12.90855639 0.20660191 5.44213952
Ar 6.60952966 0.06010559 7.22086183
Ar 7.97112681 4.23135124 0.21989338
Ar 13.91416888 11.55232977 11.38984647
Ar 11.51873873 8.80801119 8.38290403
Ar 11.92257148 0.84004345 8.83389476
Ar 8.39005732 6.46710397 14.74504151
Ar 14.25533207 6.21879318 14.08772977
Ar 3.89438786 14.29218171 1.79724497
Ar 9.17274834 2.32250849 2.52992132
Ar 12.34993185 12.19310202 13.84930908
Ar 11.02110707 14.59933489 2.08962972
Ar 6.23072898 1.85197562 4.17456352
Ar 13.36050757 2.72510168 14.85609704
Ar 4.57042376 3.53807165 7.18859252
Ar 2.72794906 5.28466097 1.25935008
Ar 11.63232564 14.53991110 3.49665421
Ar 9.96849341 14.64321963 6.69479176
Ar 11.53633161 2.04897148 6.96457065
Ar 3.11993108 2.67031471 11.34363898
Ar 14.80824877 10.52451177 3.27053979
Ar 7.46884543 5.48310781 7.16238967
Ar 8.69150382 10.13072295 13.87452706
Ar 12.87980724 10.28110780 11.55201323
Ar 10.65056975 9.40328797 13.43221367
Ar 2.56456725 1.59663424 9.77725084
Ar 4.25640333 1.60945332 6.41402687
Ar 1.01924304 1.05203688 1.04325371
Ar 2.05588567 12.33532340 3.46530319
Ar 8.96789807 6.76930025 3.53277353
Ar 0.44141942 2.80523606 5.85760697
Ar 9.56707997 8.66308580 7.79536340
Ar 13.82379764 11.98265943 2.76097178
Ar 2.47348393 3.62026753 1.55551781
Ar 6.77920211 12.48934211 10.49346925
Ar 13.65565771 1.27196034 3.65375967
Ar 12.00204125 3.89153858 14.42941669
Ar 6.17435664 14.41427726 2.00357223
Ar 11.71079708 13.94314448 9.16643065
Ar 14.18186610 5.89882156 7.13590652
Ar 6.00742318 8.38402994 1.38867374
Ar 9.94145953 7.31752989 1.02324409
Ar 14.24101400 7.42053684 5.36314842
Ar 2.33363044 2.43938012 2.62661423
Ar 13.56262715 6.42053649 2.94808676
Ar 8.17004126 3.07346989 11.95335534
Ar 3.27245832 5.93641743 8.29296906
Ar 3.40531052 14.35051551 6.62592237
Ar 0.12656861 11.79908343 1.18095531
