5
energy=-0.000011
Ar 0.07349500 0.25376347 0.31800131
Ar 14.82862402 6.99630261 4.09788084
Ar 12.14300573 3.31853981 11.23400212
Ar 2.05968142 8.44353776 14.48462780
Ar 0.75524924 7.07578276 6.92740971
45
energy=-1.084996
Ar 0.47345776 0.37267840 0.40605354
Ar 0.71580378 6.99575606 3.81444123
Ar 11.88858313 3.07249009 11.23548986
Ar 1.92326247 8.18981720 14.17229171
Ar 1.08772834 7.46267397 6.82715201
Ar 13.93936551 2.78983194 8.08957489
Ar 7.87049079 10.71716021 6.42644369
Ar 7.26443107 13.09687444 6.74283259
Ar 8.96829283 0.50961830 4.76243041
Ar 0.19495094 3.15678642 5.24985425
Ar 10.45343282 8.46379608 5.91465565
Ar 4.24896321 14.05354371 0.77783432
Ar 9.55575665 3.78528740 5.86118479
Ar 2.83205575 0.13474726 14.65963783
Ar 9.25226595 5.65923713 9.61378714
Ar 7.22880861 7.16620709 0.14971540
Ar 2.50125058 2.87366170 0.37171325
Ar 1.37782255 9.30164935 3.09313448
Ar 3.42685377 9.92493291 4.01166534
Ar 13.41067091 7.35467196 0.06732113
Ar 2.84158765 5.65196940 11.35756616
Ar 11.55650674 11.30910944 8.72499703
Ar 13.18026014 13.95024015 12.33636948
Ar 5.33844701 1.60008413 11.94228745
Ar 3.61045218 10.65475129 14.64765600
Ar 12.87476856 11.12287946 11.36496365
Ar 7.44697999 3.13786118 14.06912033
Ar 7.34533968 3.92352358 8.02775470
Ar 9.20534285 5.54864866 12.37950872
Ar 13.02552433 0.91209481 1.17708446
Ar 6.97269046 3.13646112 1.26069753
Ar 14.71704204 5.75856087 7.86128505
Ar 4.32531326 3.97592743 9.04919989
Ar 12.13498594 7.31709466 10.59206610
Ar 12.74863817 9.65060151 12.19516552
Ar 8.35276866 12.29114446 12.39296864
Ar 8.02262364 0.15883415 14.26116202
Ar 11.77858215 1.63110484 6.75195967
Ar 2.45443595 8.08869676 2.20965333
Ar 7.18713050 7.97749641 3.97600578
Ar 7.46406122 1.08789765 11.94435596
Ar 0.08032613 14.07680588 13.99710503
Ar 3.75189073 0.54053763 5.60804420
Ar 9.35164777 7.09695388 3.09337954
Ar 2.19398423 1.62978648 14.59167052
74
energy=-5.105240
Ar 14.68933050 0.54120094 14.66872101
Ar 14.53958549 7.76301430 7.13708654
Ar 14.12834734 7.66201920 13.28205590
Ar 9.03210366 3.51418646 7.57742113
Ar 0.40452595 7.99276141 3.16878100
Ar 13.80035809 4.81506508 3.10927739
Ar 5.90581686 7.79488560 13.57457028
Ar 5.61840774 6.99703666 8.34434798
Ar 0.03788883 13.66769108 0.32722062
Ar 12.31151951 10.84420488 12.45980049
Ar 9.83455569 2.37037059 8.41448686
Ar 10.10314846 13.07906348 12.90318072
Ar 9.28599241 11.41995083 5.01282648
Ar 11.28005240 6.24529543 10.29007561
Ar 1.34573498 14.32942081 7.89051406
Ar 10.08041348 0.72002832 14.37725226
Ar 13.78441489 1.86633946 1.66007982
Ar 12.09595341 14.70948334 3.48336827
Ar 9.30367015 6.35328593 2.48793997
Ar 5.11042203 11.60739058 5.74283256
Ar 0.20285834 2.93532209 7.86782982
Ar 4.48815475 0.05433895 11.63091755
Ar 14.31884341 12.87544343 10.38930703
Ar 2.31852105 6.25581314 12.95910306
Ar 10.50384176 8.89024258 0.45990902
Ar 6.84360243 9.93627571 11.90498525
Ar 13.33272198 10.75844061 14.08008276
Ar 12.28831607 6.57599962 7.05254218
Ar 3.23067829 6.18290314 5.38630901
Ar 10.98938453 1.53504713 7.32421183
Ar 13.71134846 5.37504433 1.43488665
Ar 1.72687521 13.29814101 6.93649395
Ar 6.56415236 10.05707716 10.55893489
Ar 11.51983494 7.92442164 10.45914462
Ar 1.45259685 11.84437752 14.62677028
Ar 6.66434908 13.98688691 14.87748840
Ar 6.03830350 5.25478982 2.70044514
Ar 5.26541596 5.64227891 8.85908783
Ar 0.86818313 2.46796247 3.30161359
Ar 5.07430794 2.04824977 2.73295324
Ar 11.91343054 11.11750153 8.63157739
Ar 5.71059621 10.03292679 8.28657215
Ar 0.17256468 2.19292752 10.64754096
Ar 8.91556810 12.97886497 5.29891421
Ar 13.95659498 12.64625611 5.40601414
Ar 0.38710764 13.70718888 3.62596259
Ar 3.60678186 14.66708144 14.32943450
Ar 5.83804629 9.94330161 13.75371149
Ar 1.73808485 8.18575355 7.55299459
Ar 13.73040179 5.42852970 7.24231706
Ar 5.07437171 10.94812310 8.44979554
Ar 8.63073461 9.45897240 6.34496226
Ar 8.63618699 12.25489260 10.47773899
Ar 5.18334605 7.95066615 6.85639719
Ar 6.78545319 5.33358002 14.87232077
Ar 11.07147289 12.12046680 2.59933495
Ar 1.46830889 8.46989713 9.28787553
Ar 11.74351465 12.71051118 7.88417099
Ar 11.63020466 7.96225792 0.24392984
Ar 6.63429723 3.72968086 5.45032403
Ar 7.65653747 1.16952368 8.12670058
Ar 10.22865452 0.90919666 9.42649529
Ar 14.46014357 13.97137523 11.99562840
Ar 6.13515307 11.01801765 14.98485839
Ar 3.57329801 12.72086611 10.33263325
Ar 3.19411762 8.05721968 5.37716823
Ar 7.28196455 5.58503721 9.05111337
Ar 8.04027231 6.84398188 3.83733609
Ar 9.63650301 9.23875039 4.45041853
Ar 2.79178749 4.41386801 7.27892696
Ar 10.59118375 6.43805058 6.87202454
Ar 0.12558337 5.59573156 8.71826015
Ar 3.21289230 10.12760166 6.41948265
Ar 3.47305671 3.43351391 0.94266563
