10
energy=0.000000
Ar 14.81117771 0.25453428 14.83354206
Ar 4.32374540 1.43357118 6.51306555
Ar 9.25889497 7.07187340 9.50503914
Ar 14.36464491 3.79576202 0.67707465
Ar 7.19208319 8.36842363 6.39316247
Ar 2.61325499 11.07333190 5.73732998
Ar 1.93074154 10.50547293 10.58324979
Ar 13.77954628 9.08544104 4.82342625
Ar 12.27833123 10.45962512 8.17949551
Ar 2.48824780 6.90812300 0.54999293
53
energy=-2.295848
Ar 14.63480926 0.14118748 14.71149244
Ar 4.70002559 1.65890424 6.57202012
Ar 9.43837826 7.31029596 9.47787982
Ar 14.37135110 3.68943574 0.66954802
Ar 7.00114956 8.47934814 6.29156856
Ar 2.70933924 10.99923791 5.99917522
Ar 2.23629347 10.43259592 10.39364184
Ar 13.75703735 9.33319635 5.21449609
Ar 11.75030707 10.01729732 8.57126361
Ar 3.02216253 7.34294178 0.62877447
Ar 6.81846272 1.47924984 7.86347508
Ar 3.40772206 10.44297884 0.74463083
Ar 2.68222774 4.76611539 5.18953852
Ar 7.59908008 1.83419867 1.22258623
Ar 10.06028836 8.51089212 12.58195701
Ar 13.23553939 2.36887522 0.68237261
Ar 10.37243378 12.25101773 10.53181877
Ar 4.60307436 8.72877616 7.17302889
Ar 6.57341887 10.56234077 3.18898764
Ar 14.52450123 2.88823941 11.20436467
Ar 9.85310030 10.14211175 7.82944407
Ar 14.29337509 5.99453233 14.02658338
Ar 9.34233890 4.64566147 14.27197438
Ar 13.60988322 14.40593235 7.18032013
Ar 12.40989327 14.65276092 9.97836290
Ar 12.68845995 0.20107005 3.53938097
Ar 7.92428727 12.82614668 3.01157593
Ar 11.02066541 13.03443525 2.27678444
Ar 6.42115691 6.78608459 6.79115259
Ar 6.01113708 5.34636922 4.66926346
Ar 9.61744642 9.89894780 3.84462559
Ar 12.31283183 5.68503472 9.59719821
Ar 12.60500520 6.35830808 5.75781022
Ar 12.25716258 0.00405399 1.71352158
Ar 5.91597448 13.97565472 10.29374050
Ar 5.72753845 0.49790703 8.45885882
Ar 5.57401846 13.19004635 3.81980295
Ar 1.99232568 8.80588349 5.68922948
Ar 2.07689446 10.57612593 1.54364690
Ar 4.35663606 2.64490238 4.08650047
Ar 5.52759269 5.20521066 2.50122756
Ar 1.86338075 4.46522837 13.65488287
Ar 8.76514729 1.17000269 4.56005477
Ar 6.69000469 6.77752415 8.54646776
Ar 5.80902021 5.58134983 8.93139633
Ar 6.63438356 2.88566066 12.35567148
Ar 0.40290049 2.93913822 2.40011032
Ar 14.09487450 11.91059460 9.63825858
Ar 4.35425221 5.38196482 8.58589469
Ar 2.52074826 10.21004752 8.86521104
Ar 13.20800605 12.82610874 7.10561455
Ar 4.54684337 12.40086832 12.78993294
Ar 10.43147394 6.04674868 0.07102414
88
energy=-6.878331
Ar 14.72009186 14.94795300 14.81343438
Ar 4.68582354 1.76273593 6.75834068
Ar 9.43837826 7.31029596 9.47787982
Ar 14.38851245 3.87769439 0.60959595
Ar 7.13026875 8.32451783 6.44851794
Ar 2.70933924 10.99923791 5.99917522
Ar 2.39549986 10.61544243 10.32865161
Ar 13.36535976 9.59108893 4.90568939
Ar 11.82672427 10.20263475 8.28955225
Ar 3.08917060 7.34176707 0.69646742
Ar 6.81846272 1.47924984 7.86347508
Ar 3.24829027 10.27190004 0.65259131
Ar 2.85676321 4.65782341 5.08464533
Ar 7.47099898 2.00671455 1.06404140
Ar 9.90748544 8.48872777 12.67032160
Ar 13.28238324 2.48934804 0.78243413
Ar 10.34239608 12.10693571 10.62411028
Ar 4.61510727 9.05283942 7.41394212
Ar 6.53142911 10.51442482 3.20666457
Ar 14.52450123 2.88823941 11.20436467
Ar 9.85310030 10.14211175 7.82944407
Ar 14.43296194 6.09981475 14.07981705
Ar 9.31329254 4.74039894 14.02301309
Ar 13.60988322 14.40593235 7.18032013
Ar 12.58274723 14.45192247 9.87866758
Ar 12.68845995 0.20107005 3.53938097
Ar 7.81267210 12.85968245 2.89694632
Ar 11.02066541 13.03443525 2.27678444
Ar 6.42115691 6.78608459 6.79115259
Ar 6.01113708 5.34636922 4.66926346
Ar 9.67992532 9.87915215 3.88804395
Ar 12.15838213 5.76627442 9.51591809
Ar 12.60500520 6.35830808 5.75781022
Ar 12.07355976 0.08692243 2.00998300
Ar 5.86815510 13.95671124 10.21608718
Ar 5.82449091 0.58552788 8.42197967
Ar 5.38017641 13.14813813 3.72036258
Ar 2.03284031 9.07510761 5.82864000
Ar 2.09282854 10.67602401 1.43366636
Ar 4.30745250 2.72266288 4.01398072
Ar 5.61885228 5.40230505 2.46612459
Ar 1.94714817 4.39034996 13.79450466
Ar 8.70571363 0.84199454 4.51989474
Ar 6.55678707 6.74642214 8.70173180
Ar 5.71596899 5.81967825 8.85723479
Ar 6.63438356 2.88566066 12.35567148
Ar 0.57822607 2.95928540 2.36239593
Ar 14.18462039 11.81658677 9.60161729
Ar 4.39377030 5.57147456 8.52427306
Ar 2.65418690 10.36555639 8.95696041
Ar 13.06243755 13.02876628 7.22505338
Ar 4.58942025 12.40862477 12.92777819
Ar 10.20323740 6.23453084 14.95910519
Ar 7.47639179 3.14584016 6.29028595
Ar 7.44022703 13.07080203 9.77030374
Ar 10.83981675 14.04329310 13.93895048
Ar 3.05774649 14.41739554 13.51499936
Ar 2.28340438 4.14719700 1.72808141
Ar 13.00223819 10.58027749 0.84112319
Ar 6.75951725 5.04651960 0.47813201
Ar 6.91322604 11.79202113 0.39957798
Ar 11.94204400 14.75737947 12.66590868
Ar 14.42629913 13.49149713 3.69667859
Ar 14.88975779 2.68683099 8.55714081
Ar 1.47886996 6.76166419 8.41468331
Ar 9.27486725 8.73831302 1.07680773
Ar 5.87499743 14.50915816 14.82558076
Ar 0.48720150 8.75206085 1.73566479
Ar 6.53024890 1.69669250 5.89396841
Ar 14.54275377 7.77595062 10.25921783
Ar 11.23167245 10.35065217 3.76189319
Ar 9.03291231 10.28618715 11.13903937
Ar 8.63351549 13.22471422 7.17791600
Ar 9.73516947 1.70872392 1.23010368
Ar 7.46221031 6.10256457 4.76787776
Ar 7.27375936 4.31065329 4.64639629
Ar 13.08752382 8.24603912 10.97154530
Ar 1.21712057 9.98327506 9.35803010
Ar 6.77403644 5.16027058 6.76747918
Ar 9.84870305 12.60621708 0.87801318
Ar 12.89419352 3.05318371 8.95854383
Ar 4.75285933 11.55675616 2.32485176
Ar 1.90277861 8.76771711 14.90528584
Ar 13.54412245 4.84402473 3.87047816
Ar 8.19261959 6.23367696 8.86156127
Ar 9.43788272 1.55946916 9.27392398
Ar 11.19370835 4.22165085 8.56688927
Ar 10.84577264 6.80832440 1.40848015
115
energy=-12.070559
Ar 14.91245242 14.78480971 14.92732156
Ar 4.84165364 1.83854122 6.78837968
Ar 9.42026207 7.29995886 9.49048952
Ar 14.38851245 3.87769439 0.60959595
Ar 7.13026875 8.32451783 6.44851794
Ar 2.55670470 10.96570287 5.85000441
Ar 2.55407003 10.59104492 10.15419318
Ar 13.22896436 9.78679797 5.08038218
Ar 11.97130188 10.28915661 8.43011019
Ar 3.08917060 7.34176707 0.69646742
Ar 6.81846272 1.47924984 7.86347508
Ar 3.24829027 10.27190004 0.65259131
Ar 2.82505633 4.77159477 5.25046550
Ar 7.47099898 2.00671455 1.06404140
Ar 9.90748544 8.48872777 12.67032160
Ar 13.36444695 2.62868340 0.81519474
Ar 10.26117353 11.96942019 10.60558558
Ar 4.61510727 9.05283942 7.41394212
Ar 6.53142911 10.51442482 3.20666457
Ar 14.63210244 2.99629725 11.19536739
Ar 9.85310030 10.14211175 7.82944407
Ar 14.46476883 6.17962138 14.09541204
Ar 9.31329254 4.74039894 14.02301309
Ar 13.54358206 14.10491153 7.38006194
Ar 12.58274723 14.45192247 9.87866758
Ar 12.59239557 0.16820871 3.44394108
Ar 7.81267210 12.85968245 2.89694632
Ar 10.89300301 12.92452388 2.08769769
Ar 6.37764396 6.98406244 6.74848094
Ar 6.17660924 5.50755666 4.54458252
Ar 9.67992532 9.87915215 3.88804395
Ar 12.02567623 5.93400066 9.71562474
Ar 12.90699715 6.37107214 5.80045577
Ar 11.92936135 0.08985925 2.14662635
Ar 5.86815510 13.95671124 10.21608718
Ar 5.82449091 0.58552788 8.42197967
Ar 5.46089683 13.22562270 3.52167635
Ar 2.03284031 9.07510761 5.82864000
Ar 2.10910988 10.53201852 1.49527482
Ar 4.46732183 2.65132420 3.86893275
Ar 5.51709369 5.57401265 2.62891376
Ar 1.93601506 4.46383633 13.79770687
Ar 8.70571363 0.84199454 4.51989474
Ar 6.55678707 6.74642214 8.70173180
Ar 5.71596899 5.81967825 8.85723479
Ar 6.59756520 2.77596022 12.34720537
Ar 0.47199185 2.94963249 2.42207967
Ar 13.88205891 11.98619221 9.63683606
Ar 4.35047585 5.72527225 8.59894543
Ar 2.52651918 10.51408571 8.93782378
Ar 12.98162181 13.06743994 7.03924567
Ar 4.64252382 12.51012337 13.06250353
Ar 10.20323740 6.23453084 14.95910519
Ar 7.47639179 3.14584016 6.29028595
Ar 7.38630843 13.19665575 9.83089532
Ar 10.83981675 14.04329310 13.93895048
Ar 3.22581087 14.26989439 13.31508915
Ar 2.37197019 4.23535750 1.75123979
Ar 13.00223819 10.58027749 0.84112319
Ar 6.88156815 5.04014136 0.59893772
Ar 6.94699811 11.94681221 0.24730394
Ar 11.94204400 14.75737947 12.66590868
Ar 14.42629913 13.49149713 3.69667859
Ar 14.88975779 2.68683099 8.55714081
Ar 1.23362749 6.76904817 8.31197801
Ar 9.17210529 8.63251643 1.03844005
Ar 5.74347608 14.59276769 14.97933884
Ar 0.48720150 8.75206085 1.73566479
Ar 6.33463983 1.79111077 6.03048566
Ar 14.54275377 7.77595062 10.25921783
Ar 11.23167245 10.35065217 3.76189319
Ar 8.96557470 10.25709530 11.24002796
Ar 8.51319631 13.29948523 6.77486073
Ar 9.73516947 1.70872392 1.23010368
Ar 7.46221031 6.10256457 4.76787776
Ar 7.27375936 4.31065329 4.64639629
Ar 13.08752382 8.24603912 10.97154530
Ar 1.31753521 9.91043954 9.51001801
Ar 6.77403644 5.16027058 6.76747918
Ar 9.92709735 12.74772262 0.78442207
Ar 12.89419352 3.05318371 8.95854383
Ar 4.75285933 11.55675616 2.32485176
Ar 2.01069357 8.59214209 14.68340448
Ar 13.65877340 4.85480150 3.74006417
Ar 8.19261959 6.23367696 8.86156127
Ar 9.43788272 1.55946916 9.27392398
Ar 11.16265964 4.19866473 8.43869432
Ar 10.84577264 6.80832440 1.40848015
Ar 6.68741990 8.58388687 9.94032532
Ar 6.19020693 4.12328116 9.34298757
Ar 7.08750373 5.30361902 9.65170170
Ar 0.59481431 6.39260632 12.85629739
Ar 14.43951222 5.07625787 2.74637440
Ar 8.08717897 4.46754898 12.60629387
Ar 8.38880852 0.75460067 8.54817173
Ar 7.20282249 1.43491685 11.05987371
Ar 4.52371014 6.21898675 11.93526244
Ar 4.26652378 11.62007227 9.40677666
Ar 4.13648798 8.53446583 9.54976877
Ar 0.63576546 11.51120120 12.59280442
Ar 12.61440549 4.55068691 11.13483434
Ar 1.03464131 6.69572716 3.70628051
Ar 6.93541710 14.62478002 2.49239345
Ar 2.85536642 12.23300073 14.19650011
Ar 9.16610892 4.51625136 10.23202630
Ar 0.68338599 14.62238111 12.17186292
Ar 13.15792382 4.53232803 7.91709645
Ar 2.92903219 14.15345604 0.62607851
Ar 11.03385811 8.22500632 10.38926436
Ar 10.75819310 0.69424421 7.14478503
Ar 4.84067029 2.31564028 0.64447973
Ar 5.24754509 11.02858402 13.69454110
Ar 11.93741484 2.96371557 3.87785048
Ar 4.47860903 3.37321926 13.47846007
Ar 5.51670594 11.55740484 4.99061707
141
energy=-20.351641
Ar 14.91245242 14.78480971 14.92732156
Ar 4.90826699 1.75280660 6.61099205
Ar 9.56093908 7.32462518 9.68610302
Ar 14.34746724 3.73619495 0.49363071
Ar 6.95100634 8.27056660 6.25454146
Ar 2.68516965 10.84918687 5.92860278
Ar 2.44330769 10.45407937 10.22180705
Ar 13.22896436 9.78679797 5.08038218
Ar 11.98065283 10.30365406 8.31550003
Ar 2.92343220 7.32421163 0.63686408
Ar 6.81846272 1.47924984 7.86347508
Ar 3.24829027 10.27190004 0.65259131
Ar 3.03824655 4.56827209 5.64479353
Ar 7.26010389 2.52276616 0.78190980
Ar 10.09802835 8.39810220 12.57037996
Ar 13.36444695 2.62868340 0.81519474
Ar 10.26117353 11.96942019 10.60558558
Ar 4.76129453 9.01888215 7.41040474
Ar 6.53142911 10.51442482 3.20666457
Ar 14.45406114 3.05319391 11.25323844
Ar 10.15331572 9.99094152 7.92665528
Ar 14.46476883 6.17962138 14.09541204
Ar 9.31329254 4.74039894 14.02301309
Ar 13.40245541 14.06968257 7.49617205
Ar 12.65700023 14.26657542 9.77872209
Ar 12.59239557 0.16820871 3.44394108
Ar 7.81267210 12.85968245 2.89694632
Ar 11.13088240 12.66884689 1.82521424
Ar 6.37764396 6.98406244 6.74848094
Ar 6.17660924 5.50755666 4.54458252
Ar 9.63046623 10.05745277 3.80335033
Ar 12.02567623 5.93400066 9.71562474
Ar 12.90699715 6.37107214 5.80045577
Ar 12.05987468 0.08405861 2.32981725
Ar 6.03899051 14.07577557 10.33530771
Ar 5.82449091 0.58552788 8.42197967
Ar 5.46089683 13.22562270 3.52167635
Ar 2.03284031 9.07510761 5.82864000
Ar 2.10910988 10.53201852 1.49527482
Ar 4.46732183 2.65132420 3.86893275
Ar 5.51709369 5.57401265 2.62891376
Ar 1.93601506 4.46383633 13.79770687
Ar 8.70571363 0.84199454 4.51989474
Ar 6.55678707 6.74642214 8.70173180
Ar 5.71596899 5.81967825 8.85723479
Ar 6.59756520 2.77596022 12.34720537
Ar 0.47199185 2.94963249 2.42207967
Ar 13.54601046 12.20089988 9.49176586
Ar 4.40786624 5.84754020 8.50648381
Ar 2.52082177 10.32919110 9.08110531
Ar 12.98162181 13.06743994 7.03924567
Ar 4.64252382 12.51012337 13.06250353
Ar 10.20323740 6.23453084 14.95910519
Ar 7.47639179 3.14584016 6.29028595
Ar 7.09372026 13.31788114 10.03153980
Ar 10.83981675 14.04329310 13.93895048
Ar 3.22581087 14.26989439 13.31508915
Ar 2.37197019 4.23535750 1.75123979
Ar 13.00223819 10.58027749 0.84112319
Ar 6.88156815 5.04014136 0.59893772
Ar 6.94699811 11.94681221 0.24730394
Ar 11.94204400 14.75737947 12.66590868
Ar 14.61076871 13.20465423 3.87243086
Ar 14.88975779 2.68683099 8.55714081
Ar 1.23362749 6.76904817 8.31197801
Ar 9.26661434 8.63695042 0.97653445
Ar 5.74347608 14.59276769 14.97933884
Ar 0.48720150 8.75206085 1.73566479
Ar 6.47115193 1.70916774 6.19737017
Ar 14.54275377 7.77595062 10.25921783
Ar 11.19781082 10.34032153 3.90158226
Ar 8.96557470 10.25709530 11.24002796
Ar 8.39337376 13.52747258 6.65338812
Ar 9.73516947 1.70872392 1.23010368
Ar 7.25502728 6.10097896 4.86402319
Ar 7.27375936 4.31065329 4.64639629
Ar 13.08752382 8.24603912 10.97154530
Ar 1.31753521 9.91043954 9.51001801
Ar 6.76870071 5.18626834 6.93759810
Ar 10.08754573 12.63631134 0.95795854
Ar 12.89419352 3.05318371 8.95854383
Ar 4.75285933 11.55675616 2.32485176
Ar 2.16054600 8.50229314 14.63207669
Ar 13.65877340 4.85480150 3.74006417
Ar 8.19261959 6.23367696 8.86156127
Ar 9.43788272 1.55946916 9.27392398
Ar 11.08216640 4.14371586 8.37206370
Ar 10.84577264 6.80832440 1.40848015
Ar 6.68741990 8.58388687 9.94032532
Ar 6.36492090 4.17846127 9.47933947
Ar 7.16152295 5.27530895 9.46112780
Ar 0.59481431 6.39260632 12.85629739
Ar 14.43951222 5.07625787 2.74637440
Ar 8.08717897 4.46754898 12.60629387
Ar 8.30192268 0.78642312 8.47963720
Ar 7.38231433 1.39323617 11.26496879
Ar 4.75269207 6.06357853 11.94630197
Ar 4.34630919 11.49830893 9.53953690
Ar 4.13648798 8.53446583 9.54976877
Ar 0.63576546 11.51120120 12.59280442
Ar 12.74178412 4.71541173 10.99656630
Ar 1.03464131 6.69572716 3.70628051
Ar 6.93541710 14.62478002 2.49239345
Ar 2.92065339 12.43116922 14.26442772
Ar 9.16610892 4.51625136 10.23202630
Ar 0.82713756 14.47197892 11.91057295
Ar 13.29225187 4.29792052 7.95952780
Ar 3.07722570 14.07274116 0.67099165
Ar 11.03385811 8.22500632 10.38926436
Ar 10.75819310 0.69424421 7.14478503
Ar 4.92104746 2.42538150 0.71472015
Ar 5.24754509 11.02858402 13.69454110
Ar 12.22556844 3.22365792 3.80588302
Ar 4.30532654 3.25541185 13.58899884
Ar 5.51670594 11.55740484 4.99061707
Ar 3.20961867 1.81360232 8.23364747
Ar 10.24926283 1.86432091 14.55377278
Ar 12.63352556 9.00497353 8.78722193
Ar 6.00968276 0.97683656 4.22310182
Ar 3.26544362 10.30788619 2.70561111
Ar 7.52060921 8.53779047 13.11065951
Ar 1.03198659 0.31134041 14.04018000
Ar 3.88108377 13.38860406 6.00979592
Ar 5.45081577 7.47879554 13.50203538
Ar 14.61057257 14.69116517 9.22109029
Ar 1.64475574 1.71107967 11.04998657
Ar 6.26827369 3.32832588 0.01490336
Ar 1.43753622 2.53779122 14.11898990
Ar 11.03585295 4.08606677 11.60690402
Ar 4.04265193 7.54960469 11.92306613
Ar 14.63175883 12.92087933 6.40859476
Ar 11.77082204 7.14254469 12.80437659
Ar 8.85850664 0.81237947 2.24961977
Ar 13.33939402 13.18240684 5.19410268
Ar 9.30239376 10.40648742 1.54736554
Ar 8.12023384 8.63726200 14.40977283
Ar 11.55422741 1.30141070 5.78372807
Ar 5.11898130 7.81201315 8.41172828
Ar 12.86196985 7.23346530 8.87557098
Ar 13.81673978 13.11765132 1.33862971
Ar 8.10052702 14.09000562 5.18405463
173
energy=-27.750281
Ar 14.92276445 14.81149951 14.85364694
Ar 4.90826699 1.75280660 6.61099205
Ar 9.56093908 7.32462518 9.68610302
Ar 14.34746724 3.73619495 0.49363071
Ar 6.95100634 8.27056660 6.25454146
Ar 2.68516965 10.84918687 5.92860278
Ar 2.44330769 10.45407937 10.22180705
Ar 13.28692153 9.61686521 5.12674128
Ar 11.98065283 10.30365406 8.31550003
Ar 2.92343220 7.32421163 0.63686408
Ar 6.64878084 1.55163426 7.85596118
Ar 3.24829027 10.27190004 0.65259131
Ar 3.03824655 4.56827209 5.64479353
Ar 7.26010389 2.52276616 0.78190980
Ar 10.09802835 8.39810220 12.57037996
Ar 13.56215210 2.47554015 0.74722217
Ar 10.26117353 11.96942019 10.60558558
Ar 5.00472205 8.94959509 7.47504867
Ar 6.62785859 10.54479836 3.48908035
Ar 14.45406114 3.05319391 11.25323844
Ar 10.15331572 9.99094152 7.92665528
Ar 14.46057255 6.20364622 14.05285119
Ar 9.38387763 4.76912596 13.94779492
Ar 13.40245541 14.06968257 7.49617205
Ar 12.65700023 14.26657542 9.77872209
Ar 12.59239557 0.16820871 3.44394108
Ar 7.81267210 12.85968245 2.89694632
Ar 11.13088240 12.66884689 1.82521424
Ar 6.37764396 6.98406244 6.74848094
Ar 6.37516843 5.41698902 4.49748857
Ar 9.63046623 10.05745277 3.80335033
Ar 12.15194253 5.82645380 9.88588214
Ar 12.97386083 6.56962543 5.64595886
Ar 12.05987468 0.08405861 2.32981725
Ar 6.03899051 14.07577557 10.33530771
Ar 5.82449091 0.58552788 8.42197967
Ar 5.39781580 13.27909821 3.63805629
Ar 2.03284031 9.07510761 5.82864000
Ar 2.10910988 10.53201852 1.49527482
Ar 4.46732183 2.65132420 3.86893275
Ar 5.51709369 5.57401265 2.62891376
Ar 1.93601506 4.46383633 13.79770687
Ar 8.70571363 0.84199454 4.51989474
Ar 6.55678707 6.74642214 8.70173180
Ar 5.71596899 5.81967825 8.85723479
Ar 6.53320851 2.65623204 12.41461917
Ar 0.46378753 3.06775958 2.26307046
Ar 13.49136780 12.23628830 9.62895980
Ar 4.40786624 5.84754020 8.50648381
Ar 2.52082177 10.32919110 9.08110531
Ar 13.10127354 12.98955651 7.14694419
Ar 4.64252382 12.51012337 13.06250353
Ar 10.20323740 6.23453084 14.95910519
Ar 7.47639179 3.14584016 6.29028595
Ar 7.09372026 13.31788114 10.03153980
Ar 10.83981675 14.04329310 13.93895048
Ar 3.22581087 14.26989439 13.31508915
Ar 2.37197019 4.23535750 1.75123979
Ar 12.91281151 10.47563574 0.79725336
Ar 6.88156815 5.04014136 0.59893772
Ar 6.95996773 11.95666606 0.20842551
Ar 11.94204400 14.75737947 12.66590868
Ar 14.51473278 13.22423812 3.84791896
Ar 14.88975779 2.68683099 8.55714081
Ar 1.26079184 6.85171013 8.48853576
Ar 9.26661434 8.63695042 0.97653445
Ar 5.74347608 14.59276769 14.97933884
Ar 0.36853521 8.58822531 1.73723320
Ar 6.61368842 1.72591882 6.28879885
Ar 14.54275377 7.77595062 10.25921783
Ar 11.19781082 10.34032153 3.90158226
Ar 8.96557470 10.25709530 11.24002796
Ar 8.49904822 13.46755097 6.72689376
Ar 9.88480006 1.67939128 1.34904516
Ar 7.25502728 6.10097896 4.86402319
Ar 7.27375936 4.31065329 4.64639629
Ar 13.08752382 8.24603912 10.97154530
Ar 1.33045268 10.08982250 9.41058417
Ar 6.76870071 5.18626834 6.93759810
Ar 10.08754573 12.63631134 0.95795854
Ar 12.94893290 3.20319964 9.00509395
Ar 4.75285933 11.55675616 2.32485176
Ar 2.14357478 8.39538038 14.78377778
Ar 13.85216187 4.69192104 3.70260370
Ar 8.19261959 6.23367696 8.86156127
Ar 9.24407636 1.91509768 9.04484544
Ar 11.08216640 4.14371586 8.37206370
Ar 10.84577264 6.80832440 1.40848015
Ar 6.68741990 8.58388687 9.94032532
Ar 6.23474930 4.27535138 9.39143440
Ar 7.16152295 5.27530895 9.46112780
Ar 0.58726498 6.24811677 13.01511040
Ar 14.43951222 5.07625787 2.74637440
Ar 8.08717897 4.46754898 12.60629387
Ar 8.28935316 1.02222782 8.40396424
Ar 7.28704076 1.21772493 11.32683541
Ar 4.75269207 6.06357853 11.94630197
Ar 4.36655471 11.40606956 9.72039113
Ar 4.13648798 8.53446583 9.54976877
Ar 0.70044759 11.33476362 12.42163677
Ar 12.74178412 4.71541173 10.99656630
Ar 1.03464131 6.69572716 3.70628051
Ar 7.12981373 14.57127509 2.43536776
Ar 2.92065339 12.43116922 14.26442772
Ar 9.16610892 4.51625136 10.23202630
Ar 0.74310920 14.51132498 11.79484201
Ar 13.41154665 4.25517360 7.97393267
Ar 3.07722570 14.07274116 0.67099165
Ar 11.06464078 8.17369897 10.40665369
Ar 10.75819310 0.69424421 7.14478503
Ar 4.92104746 2.42538150 0.71472015
Ar 5.24754509 11.02858402 13.69454110
Ar 12.22556844 3.22365792 3.80588302
Ar 4.48101232 3.24769080 13.78655708
Ar 5.39584959 11.66964465 4.95097622
Ar 3.20961867 1.81360232 8.23364747
Ar 10.24926283 1.86432091 14.55377278
Ar 12.74675485 9.16191534 8.90736701
Ar 5.78666038 1.12301629 4.25151021
Ar 3.26544362 10.30788619 2.70561111
Ar 7.52060921 8.53779047 13.11065951
Ar 1.03198659 0.31134041 14.04018000
Ar 3.83535036 13.55041213 5.97996707
Ar 5.45081577 7.47879554 13.50203538
Ar 14.61057257 14.69116517 9.22109029
Ar 1.58473479 1.82089395 11.03301718
Ar 6.26827369 3.32832588 0.01490336
Ar 1.43753622 2.53779122 14.11898990
Ar 11.03585295 4.08606677 11.60690402
Ar 4.04265193 7.54960469 11.92306613
Ar 14.63175883 12.92087933 6.40859476
Ar 11.77082204 7.14254469 12.80437659
Ar 8.85850664 0.81237947 2.24961977
Ar 13.33939402 13.18240684 5.19410268
Ar 9.30239376 10.40648742 1.54736554
Ar 8.12023384 8.63726200 14.40977283
Ar 11.55422741 1.30141070 5.78372807
Ar 5.27817193 7.95867304 8.46822871
Ar 12.86196985 7.23346530 8.87557098
Ar 13.81673978 13.11765132 1.33862971
Ar 7.93075060 13.95991520 5.19070265
Ar 6.88301155 10.64820486 7.18312140
Ar 5.17904440 10.01675981 11.81786732
Ar 8.94293615 5.72523712 1.90697278
Ar 7.89051568 10.40745417 12.55038601
Ar 9.88403545 6.06985574 6.35272780
Ar 6.31855850 8.76988209 3.65736916
Ar 4.80757091 8.98435524 14.34153536
Ar 12.00485285 0.33327262 14.56316300
Ar 1.49110256 7.03007188 1.45318217
Ar 10.01576913 13.20050932 6.97573555
Ar 10.31638812 2.57359899 6.07641029
Ar 8.52026943 12.40789732 11.40125357
Ar 9.70537755 5.45563154 3.80567734
Ar 7.21920966 13.78098297 1.01569014
Ar 0.41734553 5.82238644 10.38535365
Ar 6.00432960 4.86996917 12.35588126
Ar 1.52392746 13.68327418 5.11964524
Ar 9.06182332 0.80590090 11.00957700
Ar 5.44871707 8.53218958 0.90154316
Ar 8.99186263 7.83620860 3.08559085
Ar 7.65635090 3.92999401 10.44301484
Ar 10.96201017 6.56695918 7.48648471
Ar 2.54236951 8.40773462 3.98351344
Ar 6.68040117 1.04180173 14.26390541
Ar 4.59363331 6.29995939 6.78923833
Ar 1.05315548 12.90435463 11.51264071
Ar 2.90774088 0.25949128 11.01424918
Ar 7.91622648 14.84566744 14.90266334
Ar 8.73676421 13.22475387 8.81709215
Ar 4.73619198 14.45229279 11.38900794
Ar 11.92747900 1.62155213 11.90895530
Ar 6.99233273 0.55503292 9.52468961
195
energy=-36.888230
Ar 14.92276445 14.81149951 14.85364694
Ar 4.90826699 1.75280660 6.61099205
Ar 9.60215453 7.35423636 9.60007529
Ar 14.27947321 3.72781538 0.68621261
Ar 6.95100634 8.27056660 6.25454146
Ar 2.68516965 10.84918687 5.92860278
Ar 2.44330769 10.45407937 10.22180705
Ar 13.28692153 9.61686521 5.12674128
Ar 11.98065283 10.30365406 8.31550003
Ar 2.92343220 7.32421163 0.63686408
Ar 6.64878084 1.55163426 7.85596118
Ar 3.24829027 10.27190004 0.65259131
Ar 3.03824655 4.56827209 5.64479353
Ar 7.26010389 2.52276616 0.78190980
Ar 10.09802835 8.39810220 12.57037996
Ar 13.56215210 2.47554015 0.74722217
Ar 10.26117353 11.96942019 10.60558558
Ar 5.00472205 8.94959509 7.47504867
Ar 6.45704415 10.54455670 3.46684367
Ar 14.26768292 2.95506262 11.31038712
Ar 10.15331572 9.99094152 7.92665528
Ar 14.46057255 6.20364622 14.05285119
Ar 9.38387763 4.76912596 13.94779492
Ar 13.40245541 14.06968257 7.49617205
Ar 12.77149575 14.27744487 9.61638255
Ar 12.59239557 0.16820871 3.44394108
Ar 7.81267210 12.85968245 2.89694632
Ar 11.13088240 12.66884689 1.82521424
Ar 6.37764396 6.98406244 6.74848094
Ar 6.37516843 5.41698902 4.49748857
Ar 9.63046623 10.05745277 3.80335033
Ar 12.15194253 5.82645380 9.88588214
Ar 13.29890302 6.69430792 5.27911932
Ar 12.05987468 0.08405861 2.32981725
Ar 6.03899051 14.07577557 10.33530771
Ar 5.90949550 0.69539854 8.44092838
Ar 5.39781580 13.27909821 3.63805629
Ar 1.91154757 9.19063715 5.86809423
Ar 2.12805845 10.43148144 1.55036016
Ar 4.43214964 2.55311864 3.85324045
Ar 5.51709369 5.57401265 2.62891376
Ar 1.94670431 4.46542960 13.85359272
Ar 8.70571363 0.84199454 4.51989474
Ar 6.61333121 6.48870741 8.91599752
Ar 5.71596899 5.81967825 8.85723479
Ar 6.53320851 2.65623204 12.41461917
Ar 0.46378753 3.06775958 2.26307046
Ar 13.64929119 12.35875190 9.57896985
Ar 4.50429440 5.74963599 8.59849495
Ar 2.52082177 10.32919110 9.08110531
Ar 13.10127354 12.98955651 7.14694419
Ar 4.64252382 12.51012337 13.06250353
Ar 10.33773873 6.21710453 0.09935565
Ar 7.47639179 3.14584016 6.29028595
Ar 7.09372026 13.31788114 10.03153980
Ar 10.83981675 14.04329310 13.93895048
Ar 3.07964909 14.30189544 13.30714263
Ar 2.24401657 4.31585483 1.62858235
Ar 12.91281151 10.47563574 0.79725336
Ar 6.88156815 5.04014136 0.59893772
Ar 6.76343654 11.96526808 0.11569911
Ar 11.94204400 14.75737947 12.66590868
Ar 14.51473278 13.22423812 3.84791896
Ar 14.88975779 2.68683099 8.55714081
Ar 1.12933446 6.81913855 8.54607944
Ar 9.26661434 8.63695042 0.97653445
Ar 5.74347608 14.59276769 14.97933884
Ar 0.39726823 8.55468523 1.73021509
Ar 6.61368842 1.72591882 6.28879885
Ar 14.54275377 7.77595062 10.25921783
Ar 11.00423291 10.40414087 3.95498426
Ar 8.96557470 10.25709530 11.24002796
Ar 8.51923975 13.42464844 6.78274738
Ar 9.74555445 1.53836244 1.47280281
Ar 7.25502728 6.10097896 4.86402319
Ar 7.19592520 4.45671637 4.48904988
Ar 13.02061577 8.30523076 10.77761274
Ar 1.33045268 10.08982250 9.41058417
Ar 6.76870071 5.18626834 6.93759810
Ar 10.08754573 12.63631134 0.95795854
Ar 12.94893290 3.20319964 9.00509395
Ar 5.04034109 11.34211495 2.04140408
Ar 2.14357478 8.39538038 14.78377778
Ar 13.85216187 4.69192104 3.70260370
Ar 8.14693267 6.17708807 8.71737040
Ar 9.05114304 1.72609534 8.86511934
Ar 11.08216640 4.14371586 8.37206370
Ar 10.84577264 6.80832440 1.40848015
Ar 6.63994636 8.50814185 9.89388318
Ar 6.17944434 4.36565008 9.33633970
Ar 7.16152295 5.27530895 9.46112780
Ar 0.58726498 6.24811677 13.01511040
Ar 14.43951222 5.07625787 2.74637440
Ar 8.08717897 4.46754898 12.60629387
Ar 8.28935316 1.02222782 8.40396424
Ar 7.44593103 1.01348032 11.28690940
Ar 4.75269207 6.06357853 11.94630197
Ar 4.36655471 11.40606956 9.72039113
Ar 4.13648798 8.53446583 9.54976877
Ar 0.53122513 11.49930833 12.40962176
Ar 12.74178412 4.71541173 10.99656630
Ar 1.12336138 6.78545166 3.76812086
Ar 7.12981373 14.57127509 2.43536776
Ar 2.92065339 12.43116922 14.26442772
Ar 9.02455708 4.33665216 10.44237392
Ar 0.74310920 14.51132498 11.79484201
Ar 13.41154665 4.25517360 7.97393267
Ar 3.07722570 14.07274116 0.67099165
Ar 11.06464078 8.17369897 10.40665369
Ar 10.75819310 0.69424421 7.14478503
Ar 4.92104746 2.42538150 0.71472015
Ar 5.24754509 11.02858402 13.69454110
Ar 12.22556844 3.22365792 3.80588302
Ar 4.48101232 3.24769080 13.78655708
Ar 5.39584959 11.66964465 4.95097622
Ar 3.20961867 1.81360232 8.23364747
Ar 10.16967726 1.91272323 14.53170801
Ar 12.63271662 9.30239875 8.82836490
Ar 5.78666038 1.12301629 4.25151021
Ar 3.26544362 10.30788619 2.70561111
Ar 7.52060921 8.53779047 13.11065951
Ar 1.03198659 0.31134041 14.04018000
Ar 3.90981647 13.49903348 5.95669230
Ar 5.45081577 7.47879554 13.50203538
Ar 14.61057257 14.69116517 9.22109029
Ar 1.58473479 1.82089395 11.03301718
Ar 6.26827369 3.32832588 0.01490336
Ar 1.40312984 2.56762688 14.14716850
Ar 11.03585295 4.08606677 11.60690402
Ar 4.04265193 7.54960469 11.92306613
Ar 14.63175883 12.92087933 6.40859476
Ar 11.85733998 7.13416718 13.00280356
Ar 9.12052450 1.00086663 2.39448298
Ar 13.33939402 13.18240684 5.19410268
Ar 9.30239376 10.40648742 1.54736554
Ar 8.12023384 8.63726200 14.40977283
Ar 11.55422741 1.30141070 5.78372807
Ar 5.27817193 7.95867304 8.46822871
Ar 12.86196985 7.23346530 8.87557098
Ar 14.08721543 12.94496842 1.42370575
Ar 7.93075060 13.95991520 5.19070265
Ar 6.95732651 10.59029002 7.37642792
Ar 5.17904440 10.01675981 11.81786732
Ar 8.94293615 5.72523712 1.90697278
Ar 7.89051568 10.40745417 12.55038601
Ar 9.88403545 6.06985574 6.35272780
Ar 6.11938717 8.86028314 3.79516050
Ar 4.80757091 8.98435524 14.34153536
Ar 12.00485285 0.33327262 14.56316300
Ar 1.49110256 7.03007188 1.45318217
Ar 10.01576913 13.20050932 6.97573555
Ar 10.31638812 2.57359899 6.07641029
Ar 8.64695442 12.45179858 11.23050106
Ar 9.61669759 5.35342071 3.72146084
Ar 7.21920966 13.78098297 1.01569014
Ar 0.34948894 5.76894254 10.17931466
Ar 6.00432960 4.86996917 12.35588126
Ar 1.52392746 13.68327418 5.11964524
Ar 8.89035048 0.68746648 10.98645122
Ar 5.39685886 8.33781618 0.79755853
Ar 8.99186263 7.83620860 3.08559085
Ar 7.65635090 3.92999401 10.44301484
Ar 10.96201017 6.56695918 7.48648471
Ar 2.54236951 8.40773462 3.98351344
Ar 6.68040117 1.04180173 14.26390541
Ar 4.59363331 6.29995939 6.78923833
Ar 1.13342049 12.60009130 11.74294681
Ar 2.90774088 0.25949128 11.01424918
Ar 7.91622648 14.84566744 14.90266334
Ar 8.73676421 13.22475387 8.81709215
Ar 4.73619198 14.45229279 11.38900794
Ar 12.06943853 1.45838622 11.91533729
Ar 6.93917891 0.54646392 9.44312651
Ar 11.45531597 10.95292972 14.41496641
Ar 14.36678234 14.94472304 3.92624464
Ar 13.25882926 7.82157828 4.41005814
Ar 14.90015704 11.93901149 2.13906061
Ar 11.19249297 9.25054337 5.18481152
Ar 9.90285768 14.70629258 3.85493812
Ar 13.61674209 1.55408329 7.23876378
Ar 11.76056203 5.62825678 1.88203759
Ar 4.74162839 12.59097634 7.48901642
Ar 0.10825784 2.17962426 5.44680659
Ar 11.23238589 4.51878438 13.10902043
Ar 2.05191000 5.97745587 13.94150196
Ar 9.15081817 12.46303828 4.03068649
Ar 11.53476616 8.77369246 14.60282187
Ar 5.83473410 14.53492699 5.82139730
Ar 1.01262889 11.76077157 1.12390662
Ar 2.47099067 11.03564204 12.50964715
Ar 6.98356592 13.73933257 13.10468171
Ar 8.12425673 11.95075374 6.51961494
Ar 2.26408083 4.18303140 8.06755724
Ar 12.48003507 7.10063325 14.40151358
Ar 2.97812822 1.31415902 14.84452362
217
energy=-45.987851
Ar 14.92276445 14.81149951 14.85364694
Ar 5.04605477 1.80610159 6.59922018
Ar 9.60215453 7.35423636 9.60007529
Ar 14.27947321 3.72781538 0.68621261
Ar 6.95100634 8.27056660 6.25454146
Ar 2.51147627 10.89431058 5.82123368
Ar 2.44330769 10.45407937 10.22180705
Ar 13.26748679 9.42019222 4.98063451
Ar 11.98065283 10.30365406 8.31550003
Ar 2.92343220 7.32421163 0.63686408
Ar 6.64878084 1.55163426 7.85596118
Ar 3.29665894 10.19709608 0.77109078
Ar 3.03824655 4.56827209 5.64479353
Ar 7.26010389 2.52276616 0.78190980
Ar 10.09802835 8.39810220 12.57037996
Ar 13.56215210 2.47554015 0.74722217
Ar 10.26117353 11.96942019 10.60558558
Ar 5.00472205 8.94959509 7.47504867
Ar 6.45704415 10.54455670 3.46684367
Ar 14.13095573 3.00734381 11.47024660
Ar 10.15331572 9.99094152 7.92665528
Ar 14.46057255 6.20364622 14.05285119
Ar 9.19830026 4.63902110 13.81575360
Ar 13.40245541 14.06968257 7.49617205
Ar 12.77149575 14.27744487 9.61638255
Ar 12.49416705 0.05434566 3.45386535
Ar 7.81267210 12.85968245 2.89694632
Ar 11.13088240 12.66884689 1.82521424
Ar 6.30084328 7.10433489 6.87663397
Ar 6.47458758 5.28284036 4.63923010
Ar 9.63046623 10.05745277 3.80335033