7
energy=-0.022218
Ar 14.93025697 0.05947117 0.22444321
Ar 14.65821182 1.11728291 7.30678068
Ar 9.31738357 12.46149049 1.27628846
Ar 0.56633354 7.54164220 8.06983644
Ar 6.50040595 11.93993538 12.28945386
Ar 8.55737232 12.94546083 3.39016541
Ar 1.52322860 9.97388600 2.29946721
54
energy=-2.748097
Ar 14.95123364 14.92947518 0.09281446
Ar 14.75486408 1.28334311 7.20963084
Ar 9.45710404 12.31883669 1.06789509
Ar 0.52146155 7.48717790 8.46053394
Ar 6.68284788 11.73340123 12.15467625
Ar 8.88334283 12.78170917 3.36268456
Ar 1.39405991 9.82517891 2.52955073
Ar 14.15731329 4.17435749 7.99987830
Ar 5.93641659 2.12304158 5.83700646
Ar 12.10708924 3.87922565 0.77958603
Ar 4.17845620 5.11183945 2.76785204
Ar 3.76201933 13.77334614 2.95936790
Ar 3.25382844 11.56255161 5.32629401
Ar 14.10503952 0.62495290 2.03408326
Ar 9.46739097 5.05436426 10.11133380
Ar 1.14174693 6.91843321 13.41964129
Ar 10.75234899 11.68266879 4.84465995
Ar 11.47418717 13.43281334 6.18035807
Ar 10.52926442 1.43918101 2.71947642
Ar 10.34711877 10.86282353 13.70520006
Ar 0.42966548 2.08466707 4.91520220
Ar 9.17319776 2.36557665 11.52987539
Ar 9.66177370 11.44349598 5.13149720
Ar 1.13960615 4.63517832 6.99842870
Ar 7.68336763 2.18628207 13.79063243
Ar 5.12342928 8.15633513 4.49944828
Ar 7.88098856 0.33050041 2.63031747
Ar 8.02503737 8.92401599 2.55632299
Ar 3.23386947 11.67193083 14.39145182
Ar 3.05925239 6.45750115 9.31766074
Ar 14.95460864 2.88379875 2.72052173
Ar 1.57829754 12.22688947 13.57626588
Ar 4.63248745 3.60259404 12.26729157
Ar 12.38340278 5.77064608 4.41328048
Ar 0.85528219 0.68401542 5.02901853
Ar 10.20197851 10.04500162 11.77612602
Ar 7.33357146 7.98837627 13.63175425
Ar 8.82327430 10.14250003 3.38817561
Ar 14.09828350 12.96910416 1.37669903
Ar 11.51075687 0.25021080 11.24078368
Ar 8.56453564 12.64440292 5.95181411
Ar 4.19254440 3.90207267 3.87058761
Ar 6.05373663 11.59922441 1.15643115
Ar 5.95221553 3.52905539 3.04844788
Ar 13.35721014 11.45158742 8.10329117
Ar 12.50947284 6.40162302 9.31191545
Ar 9.33996851 13.57101188 9.90278018
Ar 10.15359939 10.41453029 0.36651547
Ar 1.90936568 4.52504939 11.68478331
Ar 13.12858265 6.42833723 5.62284532
Ar 4.54780130 0.66820540 7.79517923
Ar 2.71153727 1.03969088 5.12308943
Ar 1.77778868 6.28549407 2.41451982
Ar 5.62241959 9.53838192 9.68754582
87
energy=-5.513411
Ar 14.87585175 14.56363164 14.96809468
Ar 14.75486408 1.28334311 7.20963084
Ar 9.45710404 12.31883669 1.06789509
Ar 0.52146155 7.48717790 8.46053394
Ar 6.68284788 11.73340123 12.15467625
Ar 8.95984276 12.59503546 3.50548037
Ar 1.20732657 9.87746613 2.60942395
Ar 14.21658762 4.32734866 8.05863449
Ar 5.99512877 1.95762128 5.83796875
Ar 12.10491963 3.82330063 0.91009105
Ar 4.25206006 5.06916241 2.78019959
Ar 3.68032312 13.63052225 2.99861038
Ar 3.06386317 11.53695903 5.15452447
Ar 13.89119689 0.83668735 1.91028962
Ar 9.54621037 4.88727882 9.92708363
Ar 1.28280097 7.10454268 13.50641173
Ar 10.75234899 11.68266879 4.84465995
Ar 11.47418717 13.43281334 6.18035807
Ar 10.59544832 1.48524608 2.71527786
Ar 10.34711877 10.86282353 13.70520006
Ar 0.42966548 2.08466707 4.91520220
Ar 9.47611983 2.30630160 11.86759220
Ar 9.66177370 11.44349598 5.13149720
Ar 1.13960615 4.63517832 6.99842870
Ar 7.68336763 2.18628207 13.79063243
Ar 4.96409828 8.12158194 4.37995098
Ar 7.90753239 0.19284775 2.72597233
Ar 8.02503737 8.92401599 2.55632299
Ar 3.23386947 11.67193083 14.39145182
Ar 3.09807429 6.55781088 9.65809058
Ar 14.95460864 2.88379875 2.72052173
Ar 1.63810317 12.06078080 13.76330661
Ar 4.51996389 3.56175424 12.45980949
Ar 12.38340278 5.77064608 4.41328048
Ar 0.85528219 0.68401542 5.02901853
Ar 10.20197851 10.04500162 11.77612602
Ar 7.33357146 7.98837627 13.63175425
Ar 8.82327430 10.14250003 3.38817561
Ar 14.09828350 12.96910416 1.37669903
Ar 11.51075687 0.25021080 11.24078368
Ar 8.41361155 12.62634980 5.83713456
Ar 4.17249161 4.00706573 3.70039519
Ar 6.05373663 11.59922441 1.15643115
Ar 5.97307560 3.51230380 3.23928992
Ar 13.37468846 11.53945356 7.82871476
Ar 12.33439157 6.43601025 9.44445815
Ar 8.97524675 13.50278445 10.22458237
Ar 10.48020773 10.59459495 0.29737777
Ar 1.90936568 4.52504939 11.68478331
Ar 13.12858265 6.42833723 5.62284532
Ar 4.64083555 0.51911753 7.65272219
Ar 2.71153727 1.03969088 5.12308943
Ar 1.87007826 6.30069686 2.07502377
Ar 5.69301944 9.89099963 9.55012327
Ar 1.95698504 11.86000490 2.15833473
Ar 12.56463394 11.27497802 14.12605435
Ar 2.19934402 8.63015225 9.25251934
Ar 9.91398604 4.41075963 3.13569749
Ar 2.07701061 3.08991692 11.26675630
Ar 6.12748311 8.07814563 3.08208383
Ar 2.72902491 1.80716294 0.91950554
Ar 8.58432998 4.54228946 0.04269651
Ar 11.22922264 11.50643627 8.84013431
Ar 12.44963805 14.96708351 8.48616580
Ar 8.28174846 3.88016524 6.99047718
Ar 9.93227752 2.19137586 3.94237138
Ar 11.08796039 5.52649280 8.20075268
Ar 10.69673997 7.01472771 2.62579518
Ar 11.86910354 9.20005723 11.44913657
Ar 7.45681999 4.51847446 3.60140270
Ar 13.44892672 10.38388895 0.60436404
Ar 1.91595010 4.43323117 14.37698232
Ar 6.27710552 14.84603325 1.86457692
Ar 0.03015361 11.38287699 12.78980851
Ar 7.46061430 2.43855548 5.03296655
Ar 4.27451886 13.82073032 4.81170147
Ar 4.02079679 13.70368166 12.23837445
Ar 7.38135775 13.69747625 14.29229740
Ar 13.91267963 0.97641470 6.06923466
Ar 14.58575738 4.67879994 1.15142911
Ar 14.89316916 6.81321752 5.90059759
Ar 14.74379902 2.46829351 13.53828469
Ar 12.05178025 7.64807761 7.52282070
Ar 14.33954863 1.03126708 11.74547633
Ar 9.83538724 6.46799555 12.63152690
Ar 6.92546717 12.81983847 9.78229383
Ar 11.85568869 3.56488104 6.20233399
113
energy=-11.746558
Ar 14.76514250 14.46471843 0.26492173
Ar 14.75486408 1.28334311 7.20963084
Ar 9.28152468 11.99484937 1.19900554
Ar 0.34936644 7.29954476 8.40981340
Ar 6.68284788 11.73340123 12.15467625
Ar 8.89298470 12.76172674 3.23361694
Ar 1.20732657 9.87746613 2.60942395
Ar 14.28560404 4.33652122 8.14178708
Ar 6.02729456 2.09621503 5.63957686
Ar 12.14788025 3.82104146 1.06063880
Ar 4.25206006 5.06916241 2.78019959
Ar 3.85521738 13.82806850 3.02598235
Ar 2.93369881 11.40900317 5.12895452
Ar 13.90917509 0.91302045 2.10178970
Ar 9.54621037 4.88727882 9.92708363
Ar 1.33783851 6.92267888 13.38626437
Ar 10.73006467 11.55066755 4.87754608
Ar 11.47418717 13.43281334 6.18035807
Ar 10.53327848 1.47945253 2.87820254
Ar 10.06790424 10.69157545 13.84246716
Ar 0.42966548 2.08466707 4.91520220
Ar 9.35819099 2.23972082 11.89359126
Ar 9.64399078 11.32233492 5.13819955
Ar 1.14687957 4.43592256 7.10804446
Ar 7.93984120 2.11923711 13.74519909
Ar 4.96409828 8.12158194 4.37995098
Ar 7.90753239 0.19284775 2.72597233
Ar 8.02503737 8.92401599 2.55632299
Ar 3.23715674 11.83027876 14.30928757
Ar 3.09807429 6.55781088 9.65809058
Ar 14.97403118 2.87348102 2.74833328
Ar 1.63802294 12.12719984 13.76307240
Ar 4.12437710 3.40328832 12.37263298
Ar 12.38340278 5.77064608 4.41328048
Ar 0.85528219 0.68401542 5.02901853
Ar 10.20197851 10.04500162 11.77612602
Ar 7.23154065 7.87583689 13.46647808
Ar 8.82327430 10.14250003 3.38817561
Ar 14.18388801 12.98693614 1.32094385
Ar 11.64227526 0.14880870 11.07998910
Ar 8.59619215 12.62394485 5.64828535
Ar 4.17249161 4.00706573 3.70039519
Ar 6.05373663 11.59922441 1.15643115
Ar 5.84783647 3.32529700 3.33392012
Ar 13.55019017 11.66457544 7.81220156
Ar 12.21232182 6.35196505 9.38021268
Ar 8.84019263 13.65524706 10.04000297
Ar 10.48020773 10.59459495 0.29737777
Ar 1.99231787 4.38528937 11.60797567
Ar 13.43091273 6.47544681 5.55698311
Ar 4.64083555 0.51911753 7.65272219
Ar 2.57619987 1.22953240 5.02678507
Ar 1.87007826 6.30069686 2.07502377
Ar 5.69301944 9.89099963 9.55012327
Ar 1.94433341 11.66920615 1.96954612
Ar 12.66721704 10.97889528 14.10203356
Ar 2.05292950 8.67602435 9.03693722
Ar 9.91398604 4.41075963 3.13569749
Ar 2.07701061 3.08991692 11.26675630
Ar 6.12748311 8.07814563 3.08208383
Ar 2.55602968 1.76812012 0.98400321
Ar 8.58432998 4.54228946 0.04269651
Ar 11.22922264 11.50643627 8.84013431
Ar 12.08182770 14.91913825 8.43260033
Ar 8.28174846 3.88016524 6.99047718
Ar 9.88099359 2.03898245 3.82145543
Ar 11.08796039 5.52649280 8.20075268
Ar 10.69673997 7.01472771 2.62579518
Ar 11.86910354 9.20005723 11.44913657
Ar 7.45681999 4.51847446 3.60140270
Ar 13.33343174 10.44560307 0.58144715
Ar 1.93112872 4.21637906 14.18849774
Ar 6.27710552 14.84603325 1.86457692
Ar 0.03015361 11.38287699 12.78980851
Ar 7.46061430 2.43855548 5.03296655
Ar 4.27451886 13.82073032 4.81170147
Ar 4.12391597 13.74367092 12.29202810
Ar 7.47586697 13.58686931 14.21015884
Ar 13.91267963 0.97641470 6.06923466
Ar 14.58575738 4.67879994 1.15142911
Ar 14.69615744 6.80239061 5.79889081
Ar 14.93781436 2.51966710 13.53895736
Ar 12.05178025 7.64807761 7.52282070
Ar 14.33954863 1.03126708 11.74547633
Ar 9.83538724 6.46799555 12.63152690
Ar 6.76141593 12.91999105 9.95558177
Ar 11.78113508 3.78937127 6.10576327
Ar 8.28295927 4.79470506 2.22373429
Ar 3.45777605 7.22481694 4.91252555
Ar 8.69618592 0.09057204 10.21516977
Ar 14.69015261 5.13423414 12.50800529
Ar 4.98041907 11.97122585 9.34187799
Ar 5.77773232 8.53087289 6.18726439
Ar 9.71646169 10.28199390 7.12072999
Ar 0.36292391 11.57306776 8.00477306
Ar 12.06087964 9.78366655 2.25137347
Ar 4.96145030 13.45499476 1.93131912
Ar 13.85037247 6.65435266 8.96769538
Ar 13.15979049 1.20899231 0.17500085
Ar 12.12367706 1.34282092 1.86937002
Ar 12.53079684 4.96219754 7.10836891
Ar 5.91359568 4.76228691 1.53243469
Ar 4.29392343 0.99748448 12.01615572
Ar 13.95196943 14.75075090 12.49017862
Ar 12.29887715 6.84634424 14.47626474
Ar 10.25016997 12.21053135 14.99560712
Ar 13.53661709 3.78349830 0.28187933
Ar 10.76554684 2.97914835 8.72234904
Ar 2.44175705 12.12835618 9.56086506
Ar 0.15447963 5.69676772 7.52608687
Ar 1.89944972 10.72933673 14.73490934
Ar 5.97512841 0.22002498 4.18376307
Ar 0.78515763 12.12629629 4.61061591
140
energy=-18.544961
Ar 14.82658156 14.59407850 0.27939858
Ar 14.70019476 1.26162838 7.04228830
Ar 9.28152468 11.99484937 1.19900554
Ar 0.34936644 7.29954476 8.40981340
Ar 6.58307464 11.72381639 12.05955099
Ar 8.79800315 12.62156206 3.05479437
Ar 1.31951501 9.74507900 2.59231158
Ar 14.16749765 4.37839936 8.18155777
Ar 6.22282120 2.19573405 5.80939180
Ar 12.15413842 3.79420228 1.07342785
Ar 4.25206006 5.06916241 2.78019959
Ar 4.12555570 13.83794493 2.78574648
Ar 2.93369881 11.40900317 5.12895452
Ar 13.90917509 0.91302045 2.10178970
Ar 9.35320975 5.06731905 9.99414512
Ar 1.29256102 6.73856589 13.40845772
Ar 10.78294517 11.62857817 5.12542663
Ar 11.47418717 13.43281334 6.18035807
Ar 10.53327848 1.47945253 2.87820254
Ar 10.09927829 10.97571144 13.83396365
Ar 0.62871045 2.10340224 5.04298933
Ar 9.34593951 2.06419899 11.99449572
Ar 9.64399078 11.32233492 5.13819955
Ar 1.14687957 4.43592256 7.10804446
Ar 8.09437151 2.06987612 13.55000197
Ar 5.00863400 8.18608897 4.37016219
Ar 7.90753239 0.19284775 2.72597233
Ar 8.02503737 8.92401599 2.55632299
Ar 3.23715674 11.83027876 14.30928757
Ar 3.09807429 6.55781088 9.65809058
Ar 14.97403118 2.87348102 2.74833328
Ar 1.73468422 12.01864690 13.78349212
Ar 4.26469435 3.33332572 12.21600039
Ar 12.44248275 5.92286347 4.29818825
Ar 0.83398431 0.83044068 5.17545427
Ar 10.25529918 10.05269935 11.90504588
Ar 7.05744315 7.77633371 13.63740221
Ar 8.74777463 10.13686933 3.19377131
Ar 14.18388801 12.98693614 1.32094385
Ar 11.64227526 0.14880870 11.07998910
Ar 8.59619215 12.62394485 5.64828535
Ar 4.17249161 4.00706573 3.70039519
Ar 6.05373663 11.59922441 1.15643115
Ar 5.70564748 3.50237464 3.47448344
Ar 13.55019017 11.66457544 7.81220156
Ar 12.13198268 6.44860804 9.18292077
Ar 8.84019263 13.65524706 10.04000297
Ar 10.48020773 10.59459495 0.29737777
Ar 1.82320360 4.34934916 11.50707164
Ar 13.43091273 6.47544681 5.55698311
Ar 4.71712767 0.35261766 7.55790111
Ar 2.57619987 1.22953240 5.02678507
Ar 1.82117144 6.21022446 2.02011965
Ar 5.69301944 9.89099963 9.55012327
Ar 2.21685923 11.63392077 1.73345531
Ar 12.49272521 10.78149202 14.20771902
Ar 2.05292950 8.67602435 9.03693722
Ar 9.72011179 4.47495146 3.33001610
Ar 2.02989198 3.08611715 11.12731997
Ar 6.12748311 8.07814563 3.08208383
Ar 2.55602968 1.76812012 0.98400321
Ar 8.58432998 4.54228946 0.04269651
Ar 11.07751748 11.40408325 8.76419573
Ar 12.08182770 14.91913825 8.43260033
Ar 8.28174846 3.88016524 6.99047718
Ar 9.92455216 2.17630729 3.74240659
Ar 11.08796039 5.52649280 8.20075268
Ar 10.67058768 7.21329043 2.70674917
Ar 11.72937209 9.17897223 11.55680646
Ar 7.45681999 4.51847446 3.60140270
Ar 13.14824344 10.28438199 0.54952824
Ar 1.93112872 4.21637906 14.18849774
Ar 6.09013510 14.99548959 1.94312671
Ar 0.03015361 11.38287699 12.78980851
Ar 7.46061430 2.43855548 5.03296655
Ar 4.70540184 14.12706647 5.19924642
Ar 4.11244740 13.73619830 12.14976157
Ar 7.47586697 13.58686931 14.21015884
Ar 14.00604949 0.85760088 6.20561144
Ar 14.58575738 4.67879994 1.15142911
Ar 14.69615744 6.80239061 5.79889081
Ar 14.95867714 2.65059401 13.68970156
Ar 11.97945244 7.71357136 7.67857002
Ar 14.33954863 1.03126708 11.74547633
Ar 9.83538724 6.46799555 12.63152690
Ar 6.76141593 12.91999105 9.95558177
Ar 11.77737173 3.83462688 6.07501591
Ar 8.28295927 4.79470506 2.22373429
Ar 3.58167190 7.18678826 4.98561078
Ar 8.69618592 0.09057204 10.21516977
Ar 14.69015261 5.13423414 12.50800529
Ar 4.98041907 11.97122585 9.34187799
Ar 5.77773232 8.53087289 6.18726439
Ar 9.71646169 10.28199390 7.12072999
Ar 0.36292391 11.57306776 8.00477306
Ar 12.05862747 9.83315198 2.07114966
Ar 5.11686820 13.61532737 2.07283590
Ar 13.85037247 6.65435266 8.96769538
Ar 13.05095567 1.27798272 0.52914951
Ar 12.12367706 1.34282092 1.86937002
Ar 12.53079684 4.96219754 7.10836891
Ar 5.89319533 4.52301108 1.52678705
Ar 4.34095430 0.84197728 12.00898597
Ar 13.99884591 14.89665002 12.50986196
Ar 12.29887715 6.84634424 14.47626474
Ar 10.08279808 12.22064103 0.14457637
Ar 13.53661709 3.78349830 0.28187933
Ar 10.76554684 2.97914835 8.72234904
Ar 2.60793563 12.28000143 9.53081838
Ar 0.07455637 5.53422869 7.45146725
Ar 1.89944972 10.72933673 14.73490934
Ar 5.97512841 0.22002498 4.18376307
Ar 0.78515763 12.12629629 4.61061591
Ar 0.72460827 5.75269979 3.83828577
Ar 4.61374741 11.39597622 12.23464708
Ar 0.57739417 14.68935407 6.67111417
Ar 4.68664159 7.82001167 2.57608699
Ar 12.22282716 2.61107963 11.49919123
Ar 7.05685838 12.02178634 14.88929399
Ar 3.28209184 3.26085767 6.08270417
Ar 8.32871595 9.73247094 14.98370391
Ar 3.86059808 4.90678854 13.74933913
Ar 8.02205460 9.18590481 6.11207159
Ar 3.12431408 7.08975648 6.72678863
Ar 1.46211244 7.15056574 10.27514340
Ar 1.85829685 10.62825621 6.21821800
Ar 5.35922532 5.53178947 14.98204758
Ar 0.14596085 13.04361731 6.53667678
Ar 14.18662454 6.85517501 0.26186182
Ar 8.90097829 8.95739971 8.72071737
Ar 0.61090907 5.16341634 14.52845349
Ar 8.98929037 3.79752227 11.80611955
Ar 8.53574874 13.12984763 13.05089479
Ar 6.45469635 8.78255577 1.38384358
Ar 2.08667596 1.36743578 7.32387515
Ar 4.13606517 11.43979559 7.56339519
Ar 9.61019796 5.24390570 6.35679094
Ar 0.91853898 9.17311617 11.78187606
Ar 9.33550451 3.63636256 5.50324503
Ar 12.41751168 1.93204317 6.66477250
166
energy=-27.585317
Ar 14.82658156 14.59407850 0.27939858
Ar 14.70019476 1.26162838 7.04228830
Ar 9.28152468 11.99484937 1.19900554
Ar 0.34936644 7.29954476 8.40981340
Ar 6.38630385 11.86514841 11.97489742
Ar 8.79619678 12.57266941 2.96906555
Ar 1.31951501 9.74507900 2.59231158
Ar 14.16749765 4.37839936 8.18155777
Ar 6.16122073 2.18754879 5.62600890
Ar 12.28331733 3.94322246 0.95098613
Ar 4.25206006 5.06916241 2.78019959
Ar 4.12555570 13.83794493 2.78574648
Ar 2.82361704 11.58426406 5.29263966
Ar 13.85914396 0.92866221 2.00956221
Ar 9.49864257 5.15177796 10.00628267
Ar 1.29256102 6.73856589 13.40845772
Ar 10.78294517 11.62857817 5.12542663
Ar 11.47418717 13.43281334 6.18035807
Ar 10.68328655 1.66049136 2.95448731
Ar 10.09927829 10.97571144 13.83396365
Ar 0.76149015 1.98204094 5.28895290
Ar 9.34593951 2.06419899 11.99449572
Ar 9.64399078 11.32233492 5.13819955
Ar 1.14687957 4.43592256 7.10804446
Ar 8.09437151 2.06987612 13.55000197
Ar 5.00863400 8.18608897 4.37016219
Ar 7.76031965 0.35359328 2.81895293
Ar 8.02503737 8.92401599 2.55632299
Ar 3.23715674 11.83027876 14.30928757
Ar 3.09714798 6.56430776 9.77122831
Ar 14.97403118 2.87348102 2.74833328
Ar 1.73468422 12.01864690 13.78349212
Ar 4.13239801 3.22489450 12.16361097
Ar 12.55915053 6.07441525 4.18196157
Ar 0.83398431 0.83044068 5.17545427
Ar 10.25529918 10.05269935 11.90504588
Ar 7.05744315 7.77633371 13.63740221
Ar 8.74777463 10.13686933 3.19377131
Ar 14.47095611 13.07803915 1.21312346
Ar 11.56056779 0.12562061 10.89356423
Ar 8.59619215 12.62394485 5.64828535
Ar 4.01956100 3.93402254 3.63375902
Ar 6.05373663 11.59922441 1.15643115
Ar 5.70564748 3.50237464 3.47448344
Ar 13.55019017 11.66457544 7.81220156
Ar 11.95045275 6.60634464 9.18461996
Ar 8.68247359 13.89713912 10.33834879
Ar 10.48042011 10.55464788 0.28047782
Ar 1.96400208 4.26948505 11.50575637
Ar 13.43091273 6.47544681 5.55698311
Ar 4.71712767 0.35261766 7.55790111
Ar 2.57619987 1.22953240 5.02678507
Ar 1.88368899 6.16892672 2.19178286
Ar 5.69301944 9.89099963 9.55012327
Ar 2.21685923 11.63392077 1.73345531
Ar 12.47772339 10.58296596 14.11651619
Ar 2.05292950 8.67602435 9.03693722
Ar 9.54339281 4.41951853 3.46589002
Ar 2.02989198 3.08611715 11.12731997
Ar 6.12748311 8.07814563 3.08208383
Ar 2.38844694 1.77472757 0.94503890
Ar 8.53320964 4.39990658 0.07923003
Ar 10.77342843 11.36764697 8.71492309
Ar 12.08173582 14.77554790 8.50997222
Ar 8.28989356 4.07981110 6.94838655
Ar 9.92455216 2.17630729 3.74240659
Ar 11.22971740 5.48954888 8.24091748
Ar 10.67058768 7.21329043 2.70674917
Ar 11.72937209 9.17897223 11.55680646
Ar 7.45681999 4.51847446 3.60140270
Ar 13.14824344 10.28438199 0.54952824
Ar 1.88453374 4.32004202 14.19222534
Ar 6.09013510 14.99548959 1.94312671
Ar 0.03015361 11.38287699 12.78980851
Ar 7.46061430 2.43855548 5.03296655
Ar 4.70540184 14.12706647 5.19924642
Ar 4.11244740 13.73619830 12.14976157
Ar 7.47586697 13.58686931 14.21015884
Ar 14.00604949 0.85760088 6.20561144
Ar 14.56523279 4.64491935 1.16018791
Ar 14.50869118 6.65261054 5.70344954
Ar 14.95867714 2.65059401 13.68970156
Ar 12.27343643 7.59733501 7.72553738
Ar 14.33954863 1.03126708 11.74547633
Ar 9.83538724 6.46799555 12.63152690
Ar 6.76141593 12.91999105 9.95558177
Ar 11.77737173 3.83462688 6.07501591
Ar 8.19142402 4.65489011 2.08198194
Ar 3.74968915 7.05884205 5.04858495
Ar 8.69618592 0.09057204 10.21516977
Ar 14.69015261 5.13423414 12.50800529
Ar 5.03649699 12.12216937 9.27010104
Ar 5.74446419 8.45033984 6.28280363
Ar 9.58586069 10.22219253 7.22426785
Ar 0.36292391 11.57306776 8.00477306
Ar 11.79616672 9.89381739 2.20139217
Ar 5.11686820 13.61532737 2.07283590
Ar 13.75789195 6.78282621 8.98145079
Ar 13.05095567 1.27798272 0.52914951
Ar 12.12367706 1.34282092 1.86937002
Ar 12.30284246 4.83411564 7.23181930
Ar 5.75775928 4.68429782 1.69323755
Ar 4.34095430 0.84197728 12.00898597
Ar 13.99884591 14.89665002 12.50986196
Ar 12.29887715 6.84634424 14.47626474
Ar 10.08279808 12.22064103 0.14457637
Ar 13.66953087 3.77172243 0.38984087
Ar 10.63920718 2.96860289 8.87106647
Ar 2.60793563 12.28000143 9.53081838
Ar 14.83575352 5.34907464 7.16604320
Ar 1.89944972 10.72933673 14.73490934
Ar 5.97512841 0.22002498 4.18376307
Ar 0.93906078 11.99341943 4.78651552
Ar 0.72460827 5.75269979 3.83828577
Ar 4.61374741 11.39597622 12.23464708
Ar 0.57739417 14.68935407 6.67111417
Ar 4.68664159 7.82001167 2.57608699
Ar 12.17935890 2.50068952 11.53143050
Ar 7.05685838 12.02178634 14.88929399
Ar 3.28209184 3.26085767 6.08270417
Ar 7.96870994 9.48232976 0.18809698
Ar 3.76614190 4.83823439 13.75228945
Ar 8.02205460 9.18590481 6.11207159
Ar 3.20628708 7.07211632 6.67449243
Ar 1.46211244 7.15056574 10.27514340
Ar 1.85829685 10.62825621 6.21821800
Ar 5.35157020 5.51947923 0.21092826
Ar 0.10084751 12.84787424 6.45432903
Ar 14.18662454 6.85517501 0.26186182
Ar 8.90097829 8.95739971 8.72071737
Ar 0.61090907 5.16341634 14.52845349
Ar 9.13172297 3.67484492 11.87753233
Ar 8.53574874 13.12984763 13.05089479
Ar 6.65034023 8.82039030 1.31213295
Ar 2.08667596 1.36743578 7.32387515
Ar 4.21061042 11.26092279 7.49598086
Ar 9.61019796 5.24390570 6.35679094
Ar 0.91853898 9.17311617 11.78187606
Ar 9.28998377 3.83622190 5.52118032
Ar 12.58750713 2.10084829 6.56810439
Ar 0.09778755 12.93829290 2.58123316
Ar 4.34869355 9.86422857 8.70362744
Ar 12.95162809 13.55858234 5.27860301
Ar 12.63946538 9.03114955 4.10152715
Ar 3.02933575 3.14870492 2.85807031
Ar 5.38592190 9.84345175 13.83265719
Ar 4.50788689 6.64936256 14.46063226
Ar 1.65320821 3.43117736 5.04406430
Ar 9.88301085 1.37386424 13.72677203
Ar 10.78175049 8.89095551 5.90684153
Ar 2.78276735 5.56735729 13.21386920
Ar 9.90932387 0.71610320 0.08604583
Ar 14.41538735 9.80155522 13.04263880
Ar 2.61844729 13.30610753 2.27312173
Ar 9.97771219 6.93629526 11.01748144
Ar 12.70828576 13.35051881 10.67302739
Ar 0.41859493 13.29596815 4.04234514
Ar 4.99412592 4.23427282 7.34025432
Ar 3.57796994 9.49848947 0.75080324
Ar 10.75518774 12.41674453 3.63453320
Ar 2.47819992 8.57729111 14.72376257
Ar 2.40606476 14.89923323 6.37484067
Ar 13.25478263 14.63211872 14.20388769
Ar 13.94265195 13.05902956 3.57365065
Ar 8.09137269 8.62359272 11.75161125
Ar 12.47721767 8.49705581 9.98904796
183
energy=-32.926324
Ar 14.82658156 14.59407850 0.27939858
Ar 14.70019476 1.26162838 7.04228830
Ar 9.42772813 11.93469976 1.26871169
Ar 0.26125200 7.11440355 8.48898989
Ar 6.38630385 11.86514841 11.97489742
Ar 8.87973363 12.56470864 2.99989809
Ar 1.31951501 9.74507900 2.59231158
Ar 14.16749765 4.37839936 8.18155777
Ar 6.16122073 2.18754879 5.62600890
Ar 12.28331733 3.94322246 0.95098613
Ar 4.25206006 5.06916241 2.78019959
Ar 4.30707146 13.97975175 2.65728635
Ar 2.82361704 11.58426406 5.29263966
Ar 13.77418109 0.82213792 1.85385742
Ar 9.49864257 5.15177796 10.00628267
Ar 1.17763115 6.55136731 13.56806627
Ar 10.78294517 11.62857817 5.12542663
Ar 11.59095638 13.40920984 6.12938175
Ar 10.68328655 1.66049136 2.95448731
Ar 10.26193872 11.01667596 13.87440516
Ar 0.76149015 1.98204094 5.28895290
Ar 9.34593951 2.06419899 11.99449572
Ar 9.64399078 11.32233492 5.13819955
Ar 1.04373632 4.40235634 7.20032345
Ar 8.09437151 2.06987612 13.55000197
Ar 5.00863400 8.18608897 4.37016219
Ar 7.76031965 0.35359328 2.81895293
Ar 8.02503737 8.92401599 2.55632299
Ar 3.23715674 11.83027876 14.30928757
Ar 3.00337866 6.63750541 9.59481718
Ar 14.97403118 2.87348102 2.74833328
Ar 1.73468422 12.01864690 13.78349212
Ar 3.67888616 3.36821114 12.18515645
Ar 12.55915053 6.07441525 4.18196157
Ar 0.83398431 0.83044068 5.17545427
Ar 10.25529918 10.05269935 11.90504588
Ar 6.96793750 7.85899710 13.66660571
Ar 8.65460399 10.15819121 3.38588303
Ar 14.47095611 13.07803915 1.21312346
Ar 11.56056779 0.12562061 10.89356423
Ar 8.59619215 12.62394485 5.64828535
Ar 4.02091545 4.14158736 3.63907450
Ar 6.05373663 11.59922441 1.15643115
Ar 5.70564748 3.50237464 3.47448344
Ar 13.55019017 11.66457544 7.81220156
Ar 11.95045275 6.60634464 9.18461996
Ar 8.68247359 13.89713912 10.33834879
Ar 10.48042011 10.55464788 0.28047782
Ar 1.96400208 4.26948505 11.50575637
Ar 13.43091273 6.47544681 5.55698311
Ar 4.74907077 0.12898957 7.60212593
Ar 2.57619987 1.22953240 5.02678507
Ar 1.88368899 6.16892672 2.19178286
Ar 5.69301944 9.89099963 9.55012327
Ar 2.21685923 11.63392077 1.73345531
Ar 12.44034800 10.53809339 14.16850409
Ar 2.05292950 8.67602435 9.03693722
Ar 9.54339281 4.41951853 3.46589002
Ar 2.02989198 3.08611715 11.12731997
Ar 6.12748311 8.07814563 3.08208383
Ar 2.38844694 1.77472757 0.94503890
Ar 8.41750273 4.56270198 14.94756082
Ar 10.58070206 11.42014496 8.69570582
Ar 12.13574323 14.94740017 8.69397683
Ar 8.28989356 4.07981110 6.94838655
Ar 9.92455216 2.17630729 3.74240659
Ar 11.22971740 5.48954888 8.24091748
Ar 10.67058768 7.21329043 2.70674917
Ar 11.59412593 9.30696384 11.65444876
Ar 7.41124572 4.55644217 3.43921578
Ar 12.99649609 10.08508731 0.66414898
Ar 1.81412429 4.25401651 14.24567242
Ar 6.09013510 14.99548959 1.94312671
Ar 0.03015361 11.38287699 12.78980851
Ar 7.46061430 2.43855548 5.03296655
Ar 4.70540184 14.12706647 5.19924642
Ar 4.11244740 13.73619830 12.14976157
Ar 7.47586697 13.58686931 14.21015884
Ar 14.00604949 0.85760088 6.20561144
Ar 14.48122305 4.52968506 1.11217628
Ar 14.53490334 6.59711738 5.73339327
Ar 14.95867714 2.65059401 13.68970156
Ar 12.27343643 7.59733501 7.72553738
Ar 14.33954863 1.03126708 11.74547633
Ar 9.83538724 6.46799555 12.63152690
Ar 6.62510445 13.03729460 9.66606063
Ar 11.77737173 3.83462688 6.07501591
Ar 8.19142402 4.65489011 2.08198194
Ar 3.73368207 6.98639902 5.15593557
Ar 8.69618592 0.09057204 10.21516977
Ar 14.74860422 5.28976660 12.70206556
Ar 5.03649699 12.12216937 9.27010104
Ar 5.75838349 8.59565311 6.10298578
Ar 9.75859478 10.34691637 7.12177911
Ar 0.29716283 11.39254190 7.93692345
Ar 11.92596296 10.07707150 2.05099483
Ar 5.11686820 13.61532737 2.07283590
Ar 13.75789195 6.78282621 8.98145079
Ar 13.05095567 1.27798272 0.52914951
Ar 12.12367706 1.34282092 1.86937002
Ar 12.28593243 4.85134145 7.16227775
Ar 5.75775928 4.68429782 1.69323755
Ar 4.19452826 0.86047227 11.83323406
Ar 13.89939339 14.91646134 12.51174955
Ar 12.29887715 6.84634424 14.47626474
Ar 10.08279808 12.22064103 0.14457637
Ar 13.66953087 3.77172243 0.38984087
Ar 10.63920718 2.96860289 8.87106647
Ar 2.60793563 12.28000143 9.53081838
Ar 14.83575352 5.34907464 7.16604320
Ar 1.89944972 10.72933673 14.73490934
Ar 6.07821487 0.21497536 4.24379241
Ar 0.93906078 11.99341943 4.78651552
Ar 0.72460827 5.75269979 3.83828577
Ar 4.61374741 11.39597622 12.23464708
Ar 0.57739417 14.68935407 6.67111417
Ar 4.70029747 7.90576318 2.61235793
Ar 12.17935890 2.50068952 11.53143050
Ar 7.05685838 12.02178634 14.88929399
Ar 3.28209184 3.26085767 6.08270417
Ar 7.80534264 9.30872158 0.07625042
Ar 3.67465003 4.81250934 13.57440103
Ar 8.02205460 9.18590481 6.11207159
Ar 3.27667589 6.83658532 6.48932161
Ar 1.46211244 7.15056574 10.27514340
Ar 1.85829685 10.62825621 6.21821800
Ar 5.35157020 5.51947923 0.21092826
Ar 0.10084751 12.84787424 6.45432903
Ar 14.18662454 6.85517501 0.26186182
Ar 8.90097829 8.95739971 8.72071737
Ar 0.74738210 5.16748666 14.72678561
Ar 9.13172297 3.67484492 11.87753233
Ar 8.53574874 13.12984763 13.05089479
Ar 6.46391518 8.77006423 1.41945674
Ar 2.08667596 1.36743578 7.32387515
Ar 4.21061042 11.26092279 7.49598086
Ar 9.61019796 5.24390570 6.35679094
Ar 0.91853898 9.17311617 11.78187606
Ar 9.28998377 3.83622190 5.52118032
Ar 12.53555481 2.26558026 6.74994814
Ar 0.23852187 13.12089732 2.72463334
Ar 4.34869355 9.86422857 8.70362744
Ar 12.85000608 13.73037528 5.47883570
Ar 12.63946538 9.03114955 4.10152715
Ar 3.02933575 3.14870492 2.85807031
Ar 5.38592190 9.84345175 13.83265719
Ar 4.50788689 6.64936256 14.46063226
Ar 1.65320821 3.43117736 5.04406430
Ar 9.88301085 1.37386424 13.72677203
Ar 10.63897657 8.97319359 5.83643199
Ar 2.90051822 5.74008792 13.31967395
Ar 9.77372169 0.89265162 14.99715183
Ar 14.41538735 9.80155522 13.04263880
Ar 2.55374137 13.25879640 2.40634057
Ar 9.97771219 6.93629526 11.01748144
Ar 12.70828576 13.35051881 10.67302739
Ar 0.50786660 13.15927259 4.10437603
Ar 4.99412592 4.23427282 7.34025432
Ar 3.57796994 9.49848947 0.75080324
Ar 10.89620202 12.25556782 3.74624465
Ar 2.47819992 8.57729111 14.72376257
Ar 2.40606476 14.89923323 6.37484067
Ar 13.34291111 14.79258368 14.36774599
Ar 13.94265195 13.05902956 3.57365065
Ar 8.09137269 8.62359272 11.75161125
Ar 12.31868936 8.53154252 10.04405371
Ar 5.30059096 12.54645038 6.72618907
Ar 7.29804664 6.42491640 0.13220015
Ar 4.84564583 11.11703224 4.37572407
Ar 5.82314490 12.44770699 13.74453084
Ar 11.38666297 13.73963818 13.27452239
Ar 3.40469566 4.81279168 9.94456398
Ar 0.68276634 0.96870571 14.06985711
Ar 13.81738736 6.27768244 11.66275854
Ar 7.07915116 14.78132867 10.00812254
Ar 7.84372093 3.40858279 9.86535565
Ar 7.71769743 1.45874018 9.62915592
Ar 12.27264037 12.75125369 12.22334000
Ar 7.19006501 11.72224680 8.66218726
Ar 2.48644905 9.64977638 12.00689955
Ar 11.45460638 6.05269703 12.32317464
Ar 4.59991950 7.77358725 10.79713149
Ar 7.92749121 1.76605045 1.19923945
204
energy=-41.255389
Ar 14.82658156 14.59407850 0.27939858
Ar 14.70019476 1.26162838 7.04228830
Ar 9.46367455 11.64067498 1.06456366
Ar 0.26125200 7.11440355 8.48898989
Ar 6.38630385 11.86514841 11.97489742
Ar 8.87973363 12.56470864 2.99989809
Ar 1.25964788 9.66808502 2.70111368
Ar 14.16749765 4.37839936 8.18155777
Ar 6.16122073 2.18754879 5.62600890
Ar 12.28331733 3.94322246 0.95098613
Ar 4.25206006 5.06916241 2.78019959
Ar 4.24841637 14.03731211 2.52571600
Ar 2.74701764 11.46415801 5.12770554
Ar 13.77418109 0.82213792 1.85385742
Ar 9.49864257 5.15177796 10.00628267
Ar 1.17763115 6.55136731 13.56806627
Ar 10.78294517 11.62857817 5.12542663
Ar 11.59095638 13.40920984 6.12938175
Ar 10.68328655 1.66049136 2.95448731
Ar 10.14430634 11.08778445 14.00947227
Ar 0.76149015 1.98204094 5.28895290
Ar 9.27886775 1.86533488 12.06846721
Ar 9.64399078 11.32233492 5.13819955
Ar 1.04373632 4.40235634 7.20032345
Ar 8.09437151 2.06987612 13.55000197
Ar 5.25026080 8.11882584 4.44229136
Ar 7.60564892 0.24820936 2.64731514
Ar 8.02503737 8.92401599 2.55632299
Ar 3.14249221 11.73632292 14.37208439
Ar 3.02138723 6.39141933 9.37608350
Ar 14.97403118 2.87348102 2.74833328
Ar 1.73468422 12.01864690 13.78349212
Ar 3.50042110 3.43542355 12.22333740
Ar 12.55915053 6.07441525 4.18196157
Ar 0.83398431 0.83044068 5.17545427
Ar 10.25529918 10.05269935 11.90504588
Ar 6.96793750 7.85899710 13.66660571
Ar 8.52030589 10.32189619 3.22810135
Ar 14.47095611 13.07803915 1.21312346
Ar 11.68120878 0.08583585 10.93958561
Ar 8.75348797 12.66955477 5.67317220
Ar 4.02091545 4.14158736 3.63907450
Ar 6.05373663 11.59922441 1.15643115
Ar 5.70564748 3.50237464 3.47448344
Ar 13.55019017 11.66457544 7.81220156
Ar 11.95045275 6.60634464 9.18461996
Ar 8.68247359 13.89713912 10.33834879
Ar 10.48042011 10.55464788 0.28047782
Ar 1.96400208 4.26948505 11.50575637
Ar 13.41807661 6.32728767 5.51384566
Ar 4.74907077 0.12898957 7.60212593
Ar 2.57619987 1.22953240 5.02678507
Ar 1.88368899 6.16892672 2.19178286
Ar 5.56377621 9.89058208 9.40192230
Ar 2.18942671 11.54775439 1.75033294
Ar 12.44034800 10.53809339 14.16850409