7
energy=-0.002552
Ar 0.16311709 14.68514096 14.90440488
Ar 11.67039245 4.36385493 10.88819044
Ar 9.25770167 1.87093340 9.14819956
Ar 8.59144426 6.19117928 5.26403279
Ar 2.82726798 0.16830646 14.85428077
Ar 0.72799794 3.54431629 7.36093997
Ar 9.51826664 9.46302530 8.36404880
53
energy=-2.713495
Ar 0.55754227 14.79863452 0.05928042
Ar 11.77222778 4.52822987 10.93326889
Ar 9.40764448 1.94332912 9.27208214
Ar 8.65418735 5.96186375 5.40520480
Ar 2.45143663 14.96665108 14.57152776
Ar 1.30350879 3.30814545 7.19489584
Ar 9.52558441 9.14176019 8.04045296
Ar 13.07385785 10.82663960 9.64379031
Ar 1.62057548 9.41818241 13.20769927
Ar 7.02875698 0.25385959 12.56088220
Ar 0.21711465 6.14565381 11.87258718
Ar 13.07424003 3.25889990 8.32191527
Ar 9.29530795 12.26902413 14.95468396
Ar 0.81562824 6.55638561 10.55856068
Ar 13.40125674 12.08610374 7.28301590
Ar 3.81869103 8.50692467 0.88251064
Ar 5.03497497 9.84240194 6.93061456
Ar 13.75541966 8.80465514 12.99960875
Ar 1.71010586 11.02042491 12.63392813
Ar 11.84915490 3.49795275 0.26108734
Ar 14.50429291 7.41028929 5.09139619
Ar 2.96710157 13.94488954 2.48965918
Ar 8.54860705 1.40685652 13.61937963
Ar 4.70705897 3.42340315 1.14980862
Ar 12.81981005 3.30814338 2.12042104
Ar 4.02733979 13.90163852 13.65313752
Ar 10.61790767 10.01752093 3.76710420
Ar 7.41367510 12.82498606 12.76536327
Ar 14.16414853 14.28608246 0.84626239
Ar 4.35932499 11.79910930 7.37679082
Ar 9.45393621 2.78892414 10.93404361
Ar 8.64649403 3.51487745 5.18848899
Ar 0.23865574 10.40195931 13.73776845
Ar 1.52705534 5.65838210 1.29334232
Ar 8.19726248 14.06645312 13.82181144
Ar 1.49244552 4.06140091 14.22679771
Ar 5.25637845 0.70463858 8.02551504
Ar 14.18824214 6.62512351 13.51770781
Ar 12.44467168 13.57158131 4.32294020
Ar 1.92361598 3.37600998 1.73131099
Ar 0.84392167 5.42372131 2.97728884
Ar 7.07661813 7.21118688 11.70548411
Ar 10.91137695 2.96859220 9.41120391
Ar 4.28744537 9.44330608 3.65472230
Ar 2.07054245 9.12552880 14.97055646
Ar 0.08303297 4.93149865 0.19697413
Ar 3.98031013 4.57301247 13.08082498
Ar 0.26243007 8.38626820 13.37111133
Ar 0.21321791 9.34315117 8.49083019
Ar 14.27738087 0.91812447 10.42750116
Ar 13.38741976 0.48187207 2.82763955
Ar 9.90627428 13.71530149 1.46187199
Ar 13.69492890 12.33739048 0.79874898
84
energy=-7.478216
Ar 0.40113197 0.07933094 0.14681487
Ar 11.72505337 4.75446027 10.80189223
Ar 9.41475444 1.97837209 9.29102783
Ar 8.75572043 5.99301889 5.35421893
Ar 2.51017028 14.79804626 14.72119156
Ar 1.28819655 3.71480974 7.28736655
Ar 9.41707417 8.94673234 7.90272383
Ar 13.07385785 10.82663960 9.64379031
Ar 1.64485651 9.45549857 13.58695770
Ar 7.06900023 0.13610895 12.64045883
Ar 0.34840700 5.96367628 11.79270236
Ar 13.33365991 3.09021067 8.18841488
Ar 9.28276849 12.22575861 14.82240508
Ar 0.67287082 6.56336368 10.66074108
Ar 13.23565046 12.05507585 7.60840575
Ar 3.81869103 8.50692467 0.88251064
Ar 4.90371569 9.66421744 7.01914524
Ar 13.87226091 8.65026817 13.14804610
Ar 1.71010586 11.02042491 12.63392813
Ar 11.97065305 3.35846765 0.22289512
Ar 14.50429291 7.41028929 5.09139619
Ar 2.96710157 13.94488954 2.48965918
Ar 8.54860705 1.40685652 13.61937963
Ar 4.75484551 3.48776869 1.09635046
Ar 12.74038490 3.42678646 2.18363365
Ar 4.02733979 13.90163852 13.65313752
Ar 10.51022448 9.85220574 3.62183143
Ar 7.41367510 12.82498606 12.76536327
Ar 14.07805988 14.09930554 0.85780644
Ar 4.23646866 11.70408140 7.23966143
Ar 9.56269992 2.80767410 10.93687490
Ar 8.66870297 3.42752362 5.26019933
Ar 0.45404306 10.50216122 13.70807987
Ar 1.55304859 5.63307753 1.38177356
Ar 8.21826971 14.07240556 13.93544602
Ar 1.45994699 4.23430057 14.17518698
Ar 5.38883064 0.77333685 7.92146640
Ar 14.18824214 6.62512351 13.51770781
Ar 12.44467168 13.57158131 4.32294020
Ar 1.74981311 3.31709207 1.60656010
Ar 1.06771801 5.36289488 2.68704093
Ar 7.07661813 7.21118688 11.70548411
Ar 10.93833667 2.99509691 9.42694609
Ar 4.15789141 9.52910547 3.39644058
Ar 1.97893589 9.16352109 14.79937105
Ar 0.27859067 4.91800200 0.13813944
Ar 3.73428234 4.71067043 13.02448517
Ar 0.27901859 8.35357549 13.26384629
Ar 0.40595975 9.34818112 8.65258419
Ar 14.31631797 1.03676176 10.45023133
Ar 13.53160049 0.83987840 2.93233764
Ar 9.93651576 13.53710994 1.58864648
Ar 13.61763373 12.51885881 0.81979330
Ar 13.96322719 7.42225076 6.35328230
Ar 9.89086825 5.21677974 0.36466659
Ar 1.19464412 12.54672169 2.10303428
Ar 5.97389756 0.23359754 3.65653886
Ar 5.89789169 13.12163850 5.58868953
Ar 12.92534511 10.00816126 5.34852296
Ar 9.76847700 10.63268471 9.04695690
Ar 12.22363794 10.83297883 7.96969227
Ar 2.97420100 14.68213783 3.94625770
Ar 13.93050443 12.68897958 3.10111331
Ar 14.00071792 12.86336022 11.15668895
Ar 0.24546266 2.20083898 4.23977536
Ar 10.54043949 7.82840196 12.52896711
Ar 5.45524250 13.68125253 11.38550384
Ar 11.83335411 9.32693756 7.54800224
Ar 3.83582119 0.87644785 7.88445590
Ar 8.02571847 6.84365625 1.81513404
Ar 6.48656115 8.19682441 4.06608270
Ar 11.07173196 14.84021000 2.49525403
Ar 11.70666468 13.30835813 10.62584607
Ar 9.74162707 13.72985137 14.00110860
Ar 10.67104076 4.21442356 6.49831065
Ar 0.62697828 0.07837553 12.97685654
Ar 10.64291781 1.71709622 13.39347332
Ar 10.50068471 4.43778682 12.28870120
Ar 14.79159028 3.62589210 4.02528518
Ar 6.51430019 14.09291820 10.08678789
Ar 1.98592222 10.65817352 3.44132436
Ar 3.23856821 1.41355966 4.13042819
Ar 11.93345357 6.72843926 11.62677059
Ar 0.66475307 9.44683318 3.38790020
