4
energy=0.000000
Ar 14.81761213 0.39940539 14.50759084
Ar 0.12128491 8.26506715 7.62000007
Ar 14.44759119 7.69521579 13.91049528
Ar 9.27769468 3.53978527 7.43997061
36
energy=-1.122083
Ar 14.68933050 0.54120094 14.66872101
Ar 14.54332483 7.82685863 6.94229457
Ar 14.21495939 8.07621876 13.26397843
Ar 9.17010668 3.50473787 7.44736076
Ar 0.70627980 8.06759314 3.47097860
Ar 13.73084981 4.72662348 3.23041199
Ar 5.90581686 7.79488560 13.57457028
Ar 5.57314712 7.11455771 8.28267268
Ar 0.21295158 13.54570733 0.22012700
Ar 12.16791964 10.89342401 12.66984235
Ar 9.83455569 2.37037059 8.41448686
Ar 9.80076204 13.27209036 12.77778936
Ar 9.21021339 11.37697080 5.12942677
Ar 11.40314338 6.22968591 10.34542766
Ar 1.34573498 14.32942081 7.89051406
Ar 10.10053162 0.87270897 14.26750476
Ar 13.89019507 1.69447442 1.83161822
Ar 12.00389934 14.57075834 3.45707477
Ar 9.00340090 6.33316298 2.51777830
Ar 5.11042203 11.60739058 5.74283256
Ar 0.10903786 3.03296956 7.96470941
Ar 4.64001504 0.02730673 11.40092756
Ar 14.31884341 12.87544343 10.38930703
Ar 2.24548864 6.03075123 13.04306987
Ar 10.36929802 9.12415161 0.43494765
Ar 7.17945854 10.13286031 11.92125329
Ar 13.43806130 10.71142280 14.25153549
Ar 12.15791611 6.40919894 6.70553798
Ar 3.35151880 6.51352940 5.48511086
Ar 10.98938453 1.53504713 7.32421183
Ar 13.91056880 5.03983116 1.17970062
Ar 1.67910327 13.18724770 7.08078930
Ar 6.36338996 10.06887019 10.26267371
Ar 11.73632354 7.95718055 10.60984935
Ar 1.45259685 11.84437752 14.62677028
Ar 6.66434908 13.98688691 14.87748840
78
energy=-6.068138
Ar 14.68933050 0.54120094 14.66872101
Ar 14.40034773 7.71406553 6.96620080
Ar 14.19291868 7.74692384 13.25107654
Ar 9.17637376 3.54825017 7.39556452
Ar 0.52614900 8.01460363 3.27501777
Ar 13.80035809 4.81506508 3.10927739
Ar 6.09288353 7.61197745 13.82449653
Ar 5.57314712 7.11455771 8.28267268
Ar 0.21295158 13.54570733 0.22012700
Ar 12.20407495 10.80190067 12.46130450
Ar 9.83455569 2.37037059 8.41448686
Ar 10.10314846 13.07906348 12.90318072
Ar 9.28599241 11.41995083 5.01282648
Ar 11.40256505 6.62476217 10.28831008
Ar 1.32075567 14.25345709 7.92332166
Ar 10.10053162 0.87270897 14.26750476
Ar 13.58338772 1.84429009 1.75942938
Ar 12.00791162 14.54046832 3.47346983
Ar 9.00340090 6.33316298 2.51777830
Ar 4.94715255 11.68269812 5.83651203
Ar 0.36909148 2.99467286 7.66896174
Ar 4.39246033 14.78140766 11.67347976
Ar 14.48812195 12.83342244 10.34652917
Ar 2.31852105 6.25581314 12.95910306
Ar 10.51452996 9.06127260 0.54961377
Ar 7.00095091 10.11995562 11.86597618
Ar 13.37939968 10.76226311 14.07668173
Ar 12.34375214 6.45439613 6.89000195
Ar 3.23067829 6.18290314 5.38630901
Ar 11.18751120 1.48558445 7.40130875
Ar 13.83754739 5.51878253 1.62814300
Ar 1.67910327 13.18724770 7.08078930
Ar 6.56415236 10.05707716 10.55893489
Ar 11.64280488 8.02285711 10.44235220
Ar 1.45259685 11.84437752 14.62677028
Ar 6.53877400 13.80361256 14.79312380
Ar 5.98324240 5.23264628 2.81102186
Ar 5.26541596 5.64227891 8.85908783
Ar 0.86818313 2.46796247 3.30161359
Ar 5.06166876 2.03148469 2.79789380
Ar 11.92750844 11.01486469 8.71900580
Ar 5.60809536 9.97056871 8.58101494
Ar 0.25265620 2.24994474 10.78594808
Ar 8.91556810 12.97886497 5.29891421
Ar 13.76206650 12.80995591 5.59158162
Ar 0.38710764 13.70718888 3.62596259
Ar 3.70346148 14.59498450 14.23494891
Ar 6.03142988 9.97914835 13.78298415
Ar 1.73808485 8.18575355 7.55299459
Ar 13.72258918 5.28339574 7.21008440
Ar 4.87763029 11.03032280 8.50955371
Ar 8.66659420 9.48110832 6.17585039
Ar 8.83093907 12.26575431 10.35190767
Ar 5.00615549 7.95671634 6.78883305
Ar 6.68475796 5.43950052 14.56275754
Ar 11.07147289 12.12046680 2.59933495
Ar 1.29129905 8.38365882 9.14883896
Ar 11.74351465 12.71051118 7.88417099
Ar 11.55293085 8.02263920 0.10873769
Ar 1.94842146 6.64188600 6.07025364
Ar 2.51144559 11.03197619 8.38606991
Ar 13.41947635 7.74091277 14.82491380
Ar 13.27721375 5.77197928 4.38486697
Ar 1.14609747 3.79504376 11.56243717
Ar 11.27709734 4.60783813 8.69284670
Ar 7.23745249 12.95106944 1.71249813
Ar 0.58851002 6.75536654 9.40468127
Ar 0.36750265 13.42783531 9.39118994
Ar 8.04190404 10.26728942 3.36261562
Ar 14.39186274 6.01280024 11.71139341
Ar 14.45623421 10.43577161 1.64151510
Ar 8.77549595 8.83378944 1.05550113
Ar 5.59951794 0.79128206 10.28020550
Ar 10.03835051 13.66849592 11.06325769
Ar 7.19536954 7.14498855 8.32684151
Ar 4.68284646 3.25973089 7.18006915
Ar 14.90018616 3.62443207 4.87509548
Ar 10.06460375 9.11413593 4.00604749
